
                                 *****************
                                 * O   R   C   A *
                                 *****************

                                            #,                                       
                                            ###                                      
                                            ####                                     
                                            #####                                    
                                            ######                                   
                                           ########,                                 
                                     ,,################,,,,,                         
                               ,,#################################,,                 
                          ,,##########################################,,             
                       ,#########################################, ''#####,          
                    ,#############################################,,   '####,        
                  ,##################################################,,,,####,       
                ,###########''''           ''''###############################       
              ,#####''   ,,,,##########,,,,          '''####'''          '####       
            ,##' ,,,,###########################,,,                        '##       
           ' ,,###''''                  '''############,,,                           
         ,,##''                                '''############,,,,        ,,,,,,###''
      ,#''                                            '''#######################'''  
     '                                                          ''''####''''         
             ,#######,   #######,   ,#######,      ##                                
            ,#'     '#,  ##    ##  ,#'     '#,    #''#        ######   ,####,        
            ##       ##  ##   ,#'  ##            #'  '#       #        #'  '#        
            ##       ##  #######   ##           ,######,      #####,   #    #        
            '#,     ,#'  ##    ##  '#,     ,#' ,#      #,         ##   #,  ,#        
             '#######'   ##     ##  '#######'  #'      '#     #####' # '####'        



                  #######################################################
                  #                        -***-                        #
                  #          Department of theory and spectroscopy      #
                  #    Directorship and core code : Frank Neese         #
                  #        Max Planck Institute fuer Kohlenforschung    #
                  #                Kaiser Wilhelm Platz 1               #
                  #                 D-45470 Muelheim/Ruhr               #
                  #                      Germany                        #
                  #                                                     #
                  #                  All rights reserved                #
                  #                        -***-                        #
                  #######################################################


                         Program Version 5.0.3 -  RELEASE  -


 With contributions from (in alphabetic order):
   Daniel Aravena         : Magnetic Suceptibility
   Michael Atanasov       : Ab Initio Ligand Field Theory (pilot matlab implementation)
   Alexander A. Auer      : GIAO ZORA, VPT2 properties, NMR spectrum
   Ute Becker             : Parallelization
   Giovanni Bistoni       : ED, misc. LED, open-shell LED, HFLD
   Martin Brehm           : Molecular dynamics
   Dmytro Bykov           : SCF Hessian
   Vijay G. Chilkuri      : MRCI spin determinant printing, contributions to CSF-ICE
   Dipayan Datta          : RHF DLPNO-CCSD density
   Achintya Kumar Dutta   : EOM-CC, STEOM-CC
   Dmitry Ganyushin       : Spin-Orbit,Spin-Spin,Magnetic field MRCI
   Miquel Garcia          : C-PCM and meta-GGA Hessian, CC/C-PCM, Gaussian charge scheme
   Yang Guo               : DLPNO-NEVPT2, F12-NEVPT2, CIM, IAO-localization
   Andreas Hansen         : Spin unrestricted coupled pair/coupled cluster methods
   Benjamin Helmich-Paris : MC-RPA, TRAH-SCF, COSX integrals
   Lee Huntington         : MR-EOM, pCC
   Robert Izsak           : Overlap fitted RIJCOSX, COSX-SCS-MP3, EOM
   Marcus Kettner         : VPT2
   Christian Kollmar      : KDIIS, OOCD, Brueckner-CCSD(T), CCSD density, CASPT2, CASPT2-K
   Simone Kossmann        : Meta GGA functionals, TD-DFT gradient, OOMP2, MP2 Hessian
   Martin Krupicka        : Initial AUTO-CI
   Lucas Lang             : DCDCAS
   Marvin Lechner         : AUTO-CI (C++ implementation), FIC-MRCC
   Dagmar Lenk            : GEPOL surface, SMD
   Dimitrios Liakos       : Extrapolation schemes; Compound Job, initial MDCI parallelization
   Dimitrios Manganas     : Further ROCIS development; embedding schemes
   Dimitrios Pantazis     : SARC Basis sets
   Anastasios Papadopoulos: AUTO-CI, single reference methods and gradients
   Taras Petrenko         : DFT Hessian,TD-DFT gradient, ASA, ECA, R-Raman, ABS, FL, XAS/XES, NRVS
   Peter Pinski           : DLPNO-MP2, DLPNO-MP2 Gradient
   Christoph Reimann      : Effective Core Potentials
   Marius Retegan         : Local ZFS, SOC
   Christoph Riplinger    : Optimizer, TS searches, QM/MM, DLPNO-CCSD(T), (RO)-DLPNO pert. Triples
   Tobias Risthaus        : Range-separated hybrids, TD-DFT gradient, RPA, STAB
   Michael Roemelt        : Original ROCIS implementation
   Masaaki Saitow         : Open-shell DLPNO-CCSD energy and density
   Barbara Sandhoefer     : DKH picture change effects
   Avijit Sen             : IP-ROCIS
   Kantharuban Sivalingam : CASSCF convergence, NEVPT2, FIC-MRCI
   Bernardo de Souza      : ESD, SOC TD-DFT
   Georgi Stoychev        : AutoAux, RI-MP2 NMR, DLPNO-MP2 response
   Willem Van den Heuvel  : Paramagnetic NMR
   Boris Wezisla          : Elementary symmetry handling
   Frank Wennmohs         : Technical directorship


 We gratefully acknowledge several colleagues who have allowed us to
 interface, adapt or use parts of their codes:
   Stefan Grimme, W. Hujo, H. Kruse, P. Pracht,  : VdW corrections, initial TS optimization,
                  C. Bannwarth, S. Ehlert          DFT functionals, gCP, sTDA/sTD-DF
   Ed Valeev, F. Pavosevic, A. Kumar             : LibInt (2-el integral package), F12 methods
   Garnet Chan, S. Sharma, J. Yang, R. Olivares  : DMRG
   Ulf Ekstrom                                   : XCFun DFT Library
   Mihaly Kallay                                 : mrcc  (arbitrary order and MRCC methods)
   Jiri Pittner, Ondrej Demel                    : Mk-CCSD
   Frank Weinhold                                : gennbo (NPA and NBO analysis)
   Christopher J. Cramer and Donald G. Truhlar   : smd solvation model
   Lars Goerigk                                  : TD-DFT with DH, B97 family of functionals
   V. Asgeirsson, H. Jonsson                     : NEB implementation
   FAccTs GmbH                                   : IRC, NEB, NEB-TS, DLPNO-Multilevel, CI-OPT
                                                   MM, QMMM, 2- and 3-layer-ONIOM, Crystal-QMMM,
                                                   LR-CPCM, SF, NACMEs, symmetry and pop. for TD-DFT,
                                                   nearIR, NL-DFT gradient (VV10), updates on ESD,
                                                   ML-optimized integration grids
   S Lehtola, MJT Oliveira, MAL Marques          : LibXC Library
   Liviu Ungur et al                             : ANISO software


 Your calculation uses the libint2 library for the computation of 2-el integrals
 For citations please refer to: http://libint.valeyev.net

 Your ORCA version has been built with support for libXC version: 5.1.0
 For citations please refer to: https://tddft.org/programs/libxc/

 This ORCA versions uses:
   CBLAS   interface :  Fast vector & matrix operations
   LAPACKE interface :  Fast linear algebra routines
   SCALAPACK package :  Parallel linear algebra routines
   Shared memory     :  Shared parallel matrices
   BLAS/LAPACK       :  OpenBLAS 0.3.15  USE64BITINT DYNAMIC_ARCH NO_AFFINITY Zen SINGLE_THREADED
        Core in use  :  Zen
   Copyright (c) 2011-2014, The OpenBLAS Project


Your calculation utilizes the atom-pairwise dispersion correction
with the Becke-Johnson damping scheme (D3BJ)
Cite in your paper:
S.Grimme, S.Ehrlich, L.Goerigk, J Comput Chem, (2011), 32, 1456–1465 
S.Grimme, J.Antony, S.Ehrlich and H.Krieg, J.Chem.Phys., 132, (2010), 154104 
   

================================================================================

----- Orbital basis set information -----
Your calculation utilizes the basis: def2-SVP
   F. Weigend and R. Ahlrichs, Phys. Chem. Chem. Phys. 7, 3297 (2005).

----- AuxJ basis set information -----
Your calculation utilizes the auxiliary basis: def2/J
   F. Weigend, Phys. Chem. Chem. Phys. 8, 1057 (2006).

================================================================================
                                        WARNINGS
                       Please study these warnings very carefully!
================================================================================


INFO   : the flag for use of the SHARK integral package has been found!

================================================================================
                                       INPUT FILE
================================================================================
NAME = Z_azobenzene.inp
|  1> ! B3LYP D3BJ RIJCOSX def2/J def2-SVP LargePrint SP
|  2> %Pal NProcs 1 end
|  3> %MaxCore 4000
|  4> %SCF
|  5>     AutoTRAH    True
|  6>     CNVDamp     True
|  7>     CNVZerner   False
|  8>     end
|  9> %method
| 10>     FrozenCore FC_ELECTRONS
| 11>     end
| 12> *xyz 0 1
| 13> C           -10.17089000     2.34680000    -0.10637000
| 14> C           -10.19549000     0.95240000    -0.18596000
| 15> C            -9.00514000     0.22716000    -0.09469000
| 16> C            -7.78745000     0.89488000     0.06857000
| 17> C            -7.75151000     2.30332000     0.13075000
| 18> C            -8.95521000     3.01806000     0.05741000
| 19> H            -8.94887000     4.09907000     0.12145000
| 20> H           -11.09422000     2.90804000    -0.16925000
| 21> H           -11.13722000     0.43375000    -0.31084000
| 22> H            -9.02617000    -0.85382000    -0.14533000
| 23> H            -6.88283000     0.30860000     0.15424000
| 24> N            -6.53927000     3.03211000     0.32117000
| 25> N            -5.39359000     2.70438000    -0.07585000
| 26> C            -5.08064000     1.76187000    -1.10086000
| 27> C            -3.86882000     1.06222000    -1.01655000
| 28> C            -3.50801000     0.14473000    -2.00818000
| 29> C            -4.35072000    -0.07273000    -3.10081000
| 30> C            -5.55193000     0.63231000    -3.20677000
| 31> C            -5.91644000     1.55021000    -2.21689000
| 32> H            -6.84309000     2.09555000    -2.33233000
| 33> H            -3.20583000     1.22516000    -0.17595000
| 34> H            -2.57362000    -0.39595000    -1.93036000
| 35> H            -4.06956000    -0.78174000    -3.86873000
| 36> H            -6.19913000     0.47141000    -4.05928000
| 37> *
| 38> 
| 39>                          ****END OF INPUT****
================================================================================

                       ****************************
                       * Single Point Calculation *
                       ****************************

---------------------------------
CARTESIAN COORDINATES (ANGSTROEM)
---------------------------------
  C    -10.170890    2.346800   -0.106370
  C    -10.195490    0.952400   -0.185960
  C     -9.005140    0.227160   -0.094690
  C     -7.787450    0.894880    0.068570
  C     -7.751510    2.303320    0.130750
  C     -8.955210    3.018060    0.057410
  H     -8.948870    4.099070    0.121450
  H    -11.094220    2.908040   -0.169250
  H    -11.137220    0.433750   -0.310840
  H     -9.026170   -0.853820   -0.145330
  H     -6.882830    0.308600    0.154240
  N     -6.539270    3.032110    0.321170
  N     -5.393590    2.704380   -0.075850
  C     -5.080640    1.761870   -1.100860
  C     -3.868820    1.062220   -1.016550
  C     -3.508010    0.144730   -2.008180
  C     -4.350720   -0.072730   -3.100810
  C     -5.551930    0.632310   -3.206770
  C     -5.916440    1.550210   -2.216890
  H     -6.843090    2.095550   -2.332330
  H     -3.205830    1.225160   -0.175950
  H     -2.573620   -0.395950   -1.930360
  H     -4.069560   -0.781740   -3.868730
  H     -6.199130    0.471410   -4.059280

----------------------------
CARTESIAN COORDINATES (A.U.)
----------------------------
  NO LB      ZA    FRAG     MASS         X           Y           Z
   0 C     6.0000    0    12.011  -19.220197    4.434809   -0.201010
   1 C     6.0000    0    12.011  -19.266684    1.799775   -0.351413
   2 C     6.0000    0    12.011  -17.017248    0.429270   -0.178938
   3 C     6.0000    0    12.011  -14.716148    1.691078    0.129579
   4 C     6.0000    0    12.011  -14.648231    4.352644    0.247082
   5 C     6.0000    0    12.011  -16.922894    5.703307    0.108489
   6 H     1.0000    0     1.008  -16.910914    7.746120    0.229507
   7 H     1.0000    0     1.008  -20.965037    5.495399   -0.319836
   8 H     1.0000    0     1.008  -21.046296    0.819669   -0.587402
   9 H     1.0000    0     1.008  -17.056989   -1.613486   -0.274634
  10 H     1.0000    0     1.008  -13.006664    0.583169    0.291471
  11 N     7.0000    0    14.007  -12.357429    5.729858    0.606923
  12 N     7.0000    0    14.007  -10.192408    5.110538   -0.143336
  13 C     6.0000    0    12.011   -9.601018    3.329452   -2.080324
  14 C     6.0000    0    12.011   -7.311010    2.007305   -1.921001
  15 C     6.0000    0    12.011   -6.629178    0.273500   -3.794910
  16 C     6.0000    0    12.011   -8.221669   -0.137440   -5.859682
  17 C     6.0000    0    12.011  -10.491627    1.194893   -6.059917
  18 C     6.0000    0    12.011  -11.180451    2.929472   -4.189315
  19 H     1.0000    0     1.008  -12.931566    3.960016   -4.407465
  20 H     1.0000    0     1.008   -6.058141    2.315217   -0.332497
  21 H     1.0000    0     1.008   -4.863437   -0.748237   -3.647852
  22 H     1.0000    0     1.008   -7.690354   -1.477275   -7.310840
  23 H     1.0000    0     1.008  -11.714658    0.890836   -7.670928

--------------------------------
INTERNAL COORDINATES (ANGSTROEM)
--------------------------------
 C      0   0   0     0.000000000000     0.00000000     0.00000000
 C      1   0   0     1.396886211579     0.00000000     0.00000000
 C      2   1   0     1.396866633935   119.96935363     0.00000000
 C      3   2   1     1.398310681537   120.11841786   359.63221497
 C      4   3   2     1.410269927922   120.28090911   359.46282729
 C      1   2   3     1.398317466958   120.07795808     0.34195116
 H      6   1   2     1.082923791086   119.42055393   180.22106446
 H      1   2   3     1.082350461219   119.95250274   180.48441976
 H      2   1   3     1.082334620069   120.01584926   179.54157017
 H      3   2   1     1.082369821688   119.92790433   179.31638280
 H      4   3   2     1.081388427763   118.60967794   178.91805941
 N      5   4   3     1.427207223251   122.51406922   178.80647295
 N     12   5   4     1.256031247900   126.82285220    31.84321018
 C     13  12   5     1.427202964788   126.82244518    18.96564232
 C     14  13  12     1.401829522802   118.42176603   209.21374022
 C     15  14  13     1.398321069390   120.52285662   181.05564125
 C     16  15  14     1.396885576058   120.07781803     0.59544378
 C     17  16  15     1.396858757105   119.96958509     0.34184957
 C     18  17  16     1.398309824216   120.11865311   359.63174288
 H     19  18  17     1.081389075079   118.60996757   178.91839976
 H     15  14  13     1.082918992215   120.05495606     1.43155013
 H     16  15  14     1.082347211804   119.96952074   180.45220095
 H     17  16  15     1.082334168406   120.01526906   179.88370799
 H     18  17  16     1.082372371275   119.92797650   179.31667495

---------------------------
INTERNAL COORDINATES (A.U.)
---------------------------
 C      0   0   0     0.000000000000     0.00000000     0.00000000
 C      1   0   0     2.639732380135     0.00000000     0.00000000
 C      2   1   0     2.639695383749   119.96935363     0.00000000
 C      3   2   1     2.642424238241   120.11841786   359.63221497
 C      4   3   2     2.665023938677   120.28090911   359.46282729
 C      1   2   3     2.642437060829   120.07795808     0.34195116
 H      6   1   2     2.046429389060   119.42055393   180.22106446
 H      1   2   3     2.045345952626   119.95250274   180.48441976
 H      2   1   3     2.045316017192   120.01584926   179.54157017
 H      3   2   1     2.045382538611   119.92790433   179.31638280
 H      4   3   2     2.043527972864   118.60967794   178.91805941
 N      5   4   3     2.697030788299   122.51406922   178.80647295
 N     12   5   4     2.373555074177   126.82285220    31.84321018
 C     13  12   5     2.697022740970   126.82244518    18.96564232
 C     14  13  12     2.649073884542   118.42176603   209.21374022
 C     15  14  13     2.642443868439   120.52285662   181.05564125
 C     16  15  14     2.639731179175   120.07781803     0.59544378
 C     17  16  15     2.639680498697   119.96958509     0.34184957
 C     18  17  16     2.642422618140   120.11865311   359.63174288
 H     19  18  17     2.043529196114   118.60996757   178.91839976
 H     15  14  13     2.046420320508   120.05495606     1.43155013
 H     16  15  14     2.045339812123   119.96952074   180.45220095
 H     17  16  15     2.045315163674   120.01526906   179.88370799
 H     18  17  16     2.045387356633   119.92797650   179.31667495

---------------------
BASIS SET INFORMATION
---------------------
There are 3 groups of distinct atoms

 Group   1 Type C   : 7s4p1d contracted to 3s2p1d pattern {511/31/1}
 Group   2 Type H   : 4s1p contracted to 2s1p pattern {31/1}
 Group   3 Type N   : 7s4p1d contracted to 3s2p1d pattern {511/31/1}

Atom   0C    basis set group =>   1
Atom   1C    basis set group =>   1
Atom   2C    basis set group =>   1
Atom   3C    basis set group =>   1
Atom   4C    basis set group =>   1
Atom   5C    basis set group =>   1
Atom   6H    basis set group =>   2
Atom   7H    basis set group =>   2
Atom   8H    basis set group =>   2
Atom   9H    basis set group =>   2
Atom  10H    basis set group =>   2
Atom  11N    basis set group =>   3
Atom  12N    basis set group =>   3
Atom  13C    basis set group =>   1
Atom  14C    basis set group =>   1
Atom  15C    basis set group =>   1
Atom  16C    basis set group =>   1
Atom  17C    basis set group =>   1
Atom  18C    basis set group =>   1
Atom  19H    basis set group =>   2
Atom  20H    basis set group =>   2
Atom  21H    basis set group =>   2
Atom  22H    basis set group =>   2
Atom  23H    basis set group =>   2

-------------------------
BASIS SET IN INPUT FORMAT
-------------------------

 # Basis set for element : H 
 NewGTO H 
 S 3 
   1      13.0107010000      0.0334854848
   2       1.9622572000      0.2347218709
   3       0.4445379600      0.8137702853
 S 1 
   1       0.1219496200      1.0000000000
 P 1 
   1       0.8000000000      1.0000000000
  end;

 # Basis set for element : C 
 NewGTO C 
 S 5 
   1    1238.4016938000      0.0055173650
   2     186.2900499200      0.0410888285
   3      42.2511763460      0.1822538213
   4      11.6765579320      0.4682845944
   5       3.5930506482      0.4457581734
 S 1 
   1       0.4024514736      1.0000000000
 S 1 
   1       0.1309018267      1.0000000000
 P 3 
   1       9.4680970621      0.0568883320
   2       2.0103545142      0.3129405934
   3       0.5477100471      0.7606501651
 P 1 
   1       0.1526861379      1.0000000000
 D 1 
   1       0.8000000000      1.0000000000
  end;

 # Basis set for element : N 
 NewGTO N 
 S 5 
   1    1712.8415853000     -0.0054477995
   2     257.6481267700     -0.0406271746
   3      58.4582458530     -0.1811196225
   4      16.1983679050     -0.4684397556
   5       5.0052600809     -0.4461684629
 S 1 
   1       0.5873185657      1.0000000000
 S 1 
   1       0.1876459225      1.0000000000
 P 3 
   1      13.5714702330     -0.0588481170
   2       2.9257372874     -0.3202462476
   3       0.7992775075     -0.7532822652
 P 1 
   1       0.2195434803      1.0000000000
 D 1 
   1       1.0000000000      1.0000000000
  end;

---------------------------------
AUXILIARY/J BASIS SET INFORMATION
---------------------------------
There are 3 groups of distinct atoms

 Group   1 Type C   : 12s5p4d2f1g contracted to 6s4p3d1f1g pattern {711111/2111/211/2/1}
 Group   2 Type H   : 5s2p1d contracted to 3s1p1d pattern {311/2/1}
 Group   3 Type N   : 12s5p4d2f1g contracted to 6s4p3d1f1g pattern {711111/2111/211/2/1}

Atom   0C    basis set group =>   1
Atom   1C    basis set group =>   1
Atom   2C    basis set group =>   1
Atom   3C    basis set group =>   1
Atom   4C    basis set group =>   1
Atom   5C    basis set group =>   1
Atom   6H    basis set group =>   2
Atom   7H    basis set group =>   2
Atom   8H    basis set group =>   2
Atom   9H    basis set group =>   2
Atom  10H    basis set group =>   2
Atom  11N    basis set group =>   3
Atom  12N    basis set group =>   3
Atom  13C    basis set group =>   1
Atom  14C    basis set group =>   1
Atom  15C    basis set group =>   1
Atom  16C    basis set group =>   1
Atom  17C    basis set group =>   1
Atom  18C    basis set group =>   1
Atom  19H    basis set group =>   2
Atom  20H    basis set group =>   2
Atom  21H    basis set group =>   2
Atom  22H    basis set group =>   2
Atom  23H    basis set group =>   2

-------------------------------------
AUXILIARY/J BASIS SET IN INPUT FORMAT
-------------------------------------

 # Auxiliary/J basis set for element : H 
 NewAuxJGTO H 
 S 3 
   1      15.6752927000      0.1007184237
   2       3.6063578000      0.3404257499
   3       1.2080016000      0.6491996172
 S 1 
   1       0.4726794000      1.0000000000
 S 1 
   1       0.2018100000      1.0000000000
 P 2 
   1       2.0281365000      0.5596620919
   2       0.5358730000      0.5596620919
 D 1 
   1       2.2165124000      1.0000000000
  end;

 # Auxiliary/J basis set for element : C 
 NewAuxJGTO C 
 S 7 
   1    1861.0916331000      0.0134602335
   2     642.9939764000      0.0299160374
   3     235.1105725000      0.1008649584
   4      90.7028894000      0.2370970548
   5      36.7794552000      0.3924037254
   6      15.6046273000      0.3195862154
   7       6.8907294000      0.0530104441
 S 1 
   1       3.1478850000     -1.0000000000
 S 1 
   1       1.4777287000      1.0000000000
 S 1 
   1       0.7076466000      1.0000000000
 S 1 
   1       0.3430122000      1.0000000000
 S 1 
   1       0.1669453000      1.0000000000
 P 2 
   1      13.5472892000     -0.6769313712
   2       5.4669419000     -0.3779500978
 P 1 
   1       2.1751721000      1.0000000000
 P 1 
   1       0.8582194000      1.0000000000
 P 1 
   1       0.3376720000      1.0000000000
 D 2 
   1       5.9287253000     -0.3533329857
   2       1.9809209000     -0.7456525731
 D 1 
   1       0.8055417000     -1.0000000000
 D 1 
   1       0.3531244000     -1.0000000000
 F 2 
   1       1.6755626000      0.6311076882
   2       0.5997536000      0.4968166032
 G 1 
   1       1.0024600000     -1.0000000000
  end;

 # Auxiliary/J basis set for element : N 
 NewAuxJGTO N 
 S 7 
   1    2542.9401785000      0.0128431329
   2    1029.5472946000      0.0206655120
   3     424.9053546000      0.0652200677
   4     178.4573708000      0.1617388940
   5      76.1362742000      0.3094256941
   6      32.9338653000      0.3918849307
   7      14.4155436000      0.1822470660
 S 1 
   1       6.3718891000     -1.0000000000
 S 1 
   1       2.8381742000      1.0000000000
 S 1 
   1       1.2711793000      1.0000000000
 S 1 
   1       0.5712407000      1.0000000000
 S 1 
   1       0.2569887000      1.0000000000
 P 2 
   1      17.8975990000     -1.0974070137
   2       6.5346319000      0.1380055963
 P 1 
   1       2.3523645000      1.0000000000
 P 1 
   1       0.8397377000      1.0000000000
 P 1 
   1       0.2989335000      1.0000000000
 D 2 
   1       7.6909870000      0.1770780943
   2       2.3044972000      0.8918319220
 D 1 
   1       0.8403987000      1.0000000000
 D 1 
   1       0.3303797000      1.0000000000
 F 2 
   1       2.3331076000      0.6223178877
   2       0.8446137000      0.5036714203
 G 1 
   1       1.4037700000     -1.0000000000
  end;

------------------------------------------------------------------------------
                           ORCA GTO INTEGRAL CALCULATION
                           -- RI-GTO INTEGRALS CHOSEN --
------------------------------------------------------------------------------
------------------------------------------------------------------------------
                   ___                                                        
                  /   \      - P O W E R E D   B Y -                         
                 /     \                                                     
                 |  |  |   _    _      __       _____    __    __             
                 |  |  |  | |  | |    /  \     |  _  \  |  |  /  |          
                  \  \/   | |  | |   /    \    | | | |  |  | /  /          
                 / \  \   | |__| |  /  /\  \   | |_| |  |  |/  /          
                |  |  |   |  __  | /  /__\  \  |    /   |      \           
                |  |  |   | |  | | |   __   |  |    \   |  |\   \          
                \     /   | |  | | |  |  |  |  | |\  \  |  | \   \       
                 \___/    |_|  |_| |__|  |__|  |_| \__\ |__|  \__/        
                                                                              
                      - O R C A' S   B I G   F R I E N D -                    
                                      &                                       
                       - I N T E G R A L  F E E D E R -                       
                                                                              
 v1 FN, 2020, v2 2021                                                         
------------------------------------------------------------------------------


Reading SHARK input file Z_azobenzene.SHARKINP.tmp ... SHARK General Contraction Test:  Segmented basis detected
   -> Pre-screening matrix *NOT* found on disk - recalculating with NShells=114
   -> Leaving CheckPreScreeningMatrix
ok
----------------------
SHARK INTEGRAL PACKAGE
----------------------

Number of atoms                             ...     24
Number of basis functions                   ...    246
Number of shells                            ...    114
Maximum angular momentum                    ...      2
Integral batch strategy                     ... SHARK/LIBINT Hybrid
RI-J (if used) integral strategy            ... SPLIT-RIJ (Revised 2003 algorithm where possible)
Printlevel                                  ...      2
Contraction scheme used                     ... SEGMENTED contraction
Coulomb Range Separation                    ... NOT USED
Exchange Range Separation                   ... NOT USED
Finite Nucleus Model                        ... NOT USED
Auxiliary Coulomb fitting basis             ... AVAILABLE
   # of basis functions in Aux-J            ...    796
   # of shells in Aux-J                     ...    260
   Maximum angular momentum in Aux-J        ...      4
Auxiliary J/K fitting basis                 ... NOT available
Auxiliary Correlation fitting basis         ... NOT available
Auxiliary 'external' fitting basis          ... NOT available
Integral threshold                          ...     1.000000e-10
Primitive cut-off                           ...     1.000000e-11
Primitive pair pre-selection threshold      ...     1.000000e-11

Calculating pre-screening integrals         ... done (  0.1 sec) Dimension = 114
Organizing shell pair data                  ... done (  0.1 sec)
Shell pair information
Total number of shell pairs                 ...      6555
Shell pairs after pre-screening             ...      5545
Total number of primitive shell pairs       ...     24083
Primitive shell pairs kept                  ...     13815
          la=0 lb=0:   1668 shell pairs
          la=1 lb=0:   2019 shell pairs
          la=1 lb=1:    647 shell pairs
          la=2 lb=0:    702 shell pairs
          la=2 lb=1:    431 shell pairs
          la=2 lb=2:     78 shell pairs

Calculating one electron integrals          ... done (  0.0 sec)
Calculating RI/J V-Matrix + Cholesky decomp.... done (  0.1 sec)
Calculating Nuclear repulsion               ... done (  0.0 sec) ENN=    783.946803355873 Eh

SHARK setup successfully completed in   0.8 seconds

Maximum memory used throughout the entire GTOINT-calculation: 40.4 MB
-------------------------------------------------------------------------------
                                 ORCA SCF
-------------------------------------------------------------------------------

------------
SCF SETTINGS
------------
Hamiltonian:
 Density Functional     Method          .... DFT(GTOs)
 Exchange Functional    Exchange        .... B88
   X-Alpha parameter    XAlpha          ....  0.666667
   Becke's b parameter  XBeta           ....  0.004200
 Correlation Functional Correlation     .... LYP
 LDA part of GGA corr.  LDAOpt          .... VWN-5
 Gradients option       PostSCFGGA      .... off
 Hybrid DFT is turned on
   Fraction HF Exchange ScalHFX         ....  0.200000
   Scaling of DF-GGA-X  ScalDFX         ....  0.720000
   Scaling of DF-GGA-C  ScalDFC         ....  0.810000
   Scaling of DF-LDA-C  ScalLDAC        ....  1.000000
   Perturbative correction              ....  0.000000
   Density functional embedding theory  .... OFF
   NL short-range parameter             ....  4.800000
 RI-approximation to the Coulomb term is turned on
   Number of AuxJ basis functions       .... 796
   RIJ-COSX (HFX calculated with COS-X)).... on


General Settings:
 Integral files         IntName         .... Z_azobenzene
 Hartree-Fock type      HFTyp           .... RHF
 Total Charge           Charge          ....    0
 Multiplicity           Mult            ....    1
 Number of Electrons    NEL             ....   96
 Basis Dimension        Dim             ....  246
 Nuclear Repulsion      ENuc            ....    783.9468033559 Eh

Convergence Acceleration:
 DIIS                   CNVDIIS         .... on
   Start iteration      DIISMaxIt       ....    12
   Startup error        DIISStart       ....  0.200000
   # of expansion vecs  DIISMaxEq       ....     5
   Bias factor          DIISBfac        ....   1.050
   Max. coefficient     DIISMaxC        ....  10.000
 Trust-Rad. Augm. Hess. CNVTRAH         .... auto
   Auto Start mean grad. ratio tolernc. ....  1.125000
   Auto Start start iteration           ....    20
   Auto Start num. interpolation iter.  ....    10
   Max. Number of Micro iterations      ....    16
   Max. Number of Macro iterations      .... Maxiter - #DIIS iter
   Number of Davidson start vectors     ....     2
   Converg. threshold I  (grad. norm)   ....   5.000e-05
   Converg. threshold II (energy diff.) ....   1.000e-06
   Grad. Scal. Fac. for Micro threshold ....   0.100
   Minimum threshold for Micro iter.    ....   0.010
   NR start threshold (gradient norm)   ....   0.001
   Initial trust radius                 ....   0.400
   Minimum AH scaling param. (alpha)    ....   1.000
   Maximum AH scaling param. (alpha)    .... 1000.000
   Orbital update algorithm             .... Taylor
   White noise on init. David. guess    .... on
   Maximum white noise                  ....   0.010
   Quad. conv. algorithm                .... NR
 SOSCF                  CNVSOSCF        .... on
   Start iteration      SOSCFMaxIt      ....   150
   Startup grad/error   SOSCFStart      ....  0.003300
 Level Shifting         CNVShift        .... on
   Level shift para.    LevelShift      ....    0.2500
   Turn off err/grad.   ShiftErr        ....    0.0010
 Zerner damping         CNVZerner       .... off
 Static damping         CNVDamp         .... on
   Fraction old density DampFac         ....    0.7000
   Max. Damping (<1)    DampMax         ....    0.9800
   Min. Damping (>=0)   DampMin         ....    0.0000
   Turn off err/grad.   DampErr         ....    0.1000
 Fernandez-Rico         CNVRico         .... off

SCF Procedure:
 Maximum # iterations   MaxIter         ....   125
 SCF integral mode      SCFMode         .... Direct
   Integral package                     .... SHARK and LIBINT hybrid scheme
 Reset frequency        DirectResetFreq ....    20
 Integral Threshold     Thresh          ....  1.000e-10 Eh
 Primitive CutOff       TCut            ....  1.000e-11 Eh

Convergence Tolerance:
 Convergence Check Mode ConvCheckMode   .... Total+1el-Energy
 Convergence forced     ConvForced      .... 0
 Energy Change          TolE            ....  1.000e-06 Eh
 1-El. energy change                    ....  1.000e-03 Eh
 Orbital Gradient       TolG            ....  5.000e-05
 Orbital Rotation angle TolX            ....  5.000e-05
 DIIS Error             TolErr          ....  1.000e-06


Diagonalization of the overlap matrix:
Smallest eigenvalue                        ... 2.501e-04
Time for diagonalization                   ...    0.100 sec
Threshold for overlap eigenvalues          ... 1.000e-08
Number of eigenvalues below threshold      ... 0
Time for construction of square roots      ...    0.004 sec
Total time needed                          ...    0.104 sec

SHARK General Contraction Test:  Segmented basis detected
   -> Pre-screening matrix found on disk - Trying to read with NShells=114
   -> Passing Pre-screening matrix on to SHARK ...ok
   -> Leaving CheckPreScreeningMatrix
----------------------
SHARK INTEGRAL PACKAGE
----------------------

Number of atoms                             ...     24
Number of basis functions                   ...    246
Number of shells                            ...    114
Maximum angular momentum                    ...      2
Integral batch strategy                     ... SHARK/LIBINT Hybrid
RI-J (if used) integral strategy            ... SPLIT-RIJ (Revised 2003 algorithm where possible)
Printlevel                                  ...      2
Contraction scheme used                     ... SEGMENTED contraction
Coulomb Range Separation                    ... NOT USED
Exchange Range Separation                   ... NOT USED
Finite Nucleus Model                        ... NOT USED
Auxiliary Coulomb fitting basis             ... AVAILABLE
   # of basis functions in Aux-J            ...    796
   # of shells in Aux-J                     ...    260
   Maximum angular momentum in Aux-J        ...      4
Auxiliary J/K fitting basis                 ... NOT available
Auxiliary Correlation fitting basis         ... NOT available
Auxiliary 'external' fitting basis          ... NOT available
Integral threshold                          ...     1.000000e-10
Primitive cut-off                           ...     1.000000e-11
Primitive pair pre-selection threshold      ...     1.000000e-11

Time for model grid setup =    0.491 sec

------------------------------
INITIAL GUESS: MODEL POTENTIAL
------------------------------
Loading Hartree-Fock densities                     ... done
Calculating cut-offs                               ... done
Initializing the effective Hamiltonian             ... done
Setting up the integral package (SHARK)            ... done
Starting the Coulomb interaction                   ...     -> Generating integrals - 
    -> L=0 0 :     0.088 sec done=    321766 skipped=     10226 prim-skipped=         0
    -> L=1 0 :     0.137 sec done=    390508 skipped=     11088 prim-skipped=         0
    -> L=1 1 :     0.106 sec done=    125116 skipped=      2840 prim-skipped=         0
    -> L=2 0 :     0.046 sec done=    135418 skipped=      3862 prim-skipped=         0
    -> L=2 1 :     0.045 sec done=     84174 skipped=      1898 prim-skipped=         0
    -> L=2 2 :     0.011 sec done=     14654 skipped=       386 prim-skipped=         0
done (   0.4 sec)
Reading the grid                                   ... done
Mapping shells                                     ... done
Starting the XC term evaluation                    ... done (   0.5 sec)
  promolecular density results
     # of electrons  =     96.000514637
     EX              =    -77.749971927
     EC              =     -3.230849824
     EX+EC           =    -80.980821750
Transforming the Hamiltonian                       ... done (   0.0 sec)
Diagonalizing the Hamiltonian                      ... done (   0.0 sec)
Back transforming the eigenvectors                 ... done (   0.0 sec)
Now organizing SCF variables                       ... done
                      ------------------
                      INITIAL GUESS DONE (   1.4 sec)
                      ------------------
----------------------
INITIAL GUESS ORBITALS
----------------------
                      0         1         2         3         4         5   
                 -14.19552 -14.19542 -10.10096 -10.10096 -10.10074 -10.10073
                   2.00000   2.00000   2.00000   2.00000   2.00000   2.00000
                  --------  --------  --------  --------  --------  --------
  0C   1s        -0.000018 -0.000007 -0.133087 -0.241953  0.037205  0.378579
  0C   2s         0.000740  0.000410 -0.005105 -0.009169  0.001798  0.018754
  0C   3s        -0.005185 -0.003755 -0.002414 -0.007967  0.000196 -0.006017
  0C   1pz        0.000025  0.000019 -0.000055 -0.000122  0.000004  0.000053
  0C   1px        0.000122  0.000147 -0.000062 -0.000110  0.000009  0.000085
  0C   1py       -0.000061  0.000028 -0.001057 -0.001966  0.000068  0.000665
  0C   2pz       -0.000440 -0.000361 -0.000320 -0.000510 -0.000158 -0.000623
  0C   2px       -0.003244 -0.003291 -0.001082 -0.003656 -0.000209 -0.005716
  0C   2py        0.001384 -0.000938 -0.002085 -0.003095 -0.000709 -0.000526
  0C   1dz2       0.000168  0.000124 -0.000152 -0.000265 -0.000059 -0.000440
  0C   1dxz      -0.000048 -0.000024 -0.000032 -0.000058  0.000008  0.000113
  0C   1dyz      -0.000024 -0.000023  0.000058  0.000109 -0.000009  0.000014
  0C   1dx2y2    -0.000006  0.000038 -0.000635 -0.001166  0.000046  0.000394
  0C   1dxy      -0.000063 -0.000036  0.000086  0.000155 -0.000025 -0.000157
  1C   1s        -0.000014 -0.000016 -0.423107 -0.770049  0.019254  0.235695
  1C   2s         0.000148  0.000133 -0.020660 -0.037459  0.001109  0.014106
  1C   3s         0.003248  0.004766  0.008929  0.020360 -0.001663 -0.017377
  1C   1pz       -0.000000  0.000018  0.000030  0.000067  0.000000  0.000086
  1C   1px        0.000049  0.000078  0.000349  0.000654  0.000164  0.001881
  1C   1py        0.000090  0.000026  0.000078  0.000164 -0.000218 -0.002307
  1C   2pz        0.000370  0.000180  0.000348  0.000604  0.000016 -0.000164
  1C   2px        0.001152  0.003108  0.001657  0.004454  0.000173 -0.000270
  1C   2py        0.001110 -0.000722  0.001491  0.002657 -0.000778 -0.003631
  1C   1dz2       0.000024  0.000010  0.000741  0.001352 -0.000097 -0.001249
  1C   1dxz       0.000002 -0.000007 -0.000172 -0.000319  0.000027  0.000321
  1C   1dyz      -0.000005  0.000009 -0.000102 -0.000182 -0.000003 -0.000079
  1C   1dx2y2    -0.000004  0.000017 -0.000182 -0.000339  0.000121  0.001231
  1C   1dxy       0.000027  0.000018 -0.000393 -0.000707 -0.000089 -0.001043
  2C   1s        -0.000002 -0.000025 -0.173667 -0.312623 -0.072175 -0.873593
  2C   2s         0.000258  0.000816 -0.007237 -0.012889 -0.003806 -0.046230
  2C   3s        -0.001300 -0.004793 -0.002059 -0.005775  0.001786  0.032447
  2C   1pz        0.000021 -0.000035 -0.000070 -0.000128 -0.000003  0.000055
  2C   1px        0.000054  0.000025 -0.000947 -0.001739  0.000034  0.000559
  2C   1py        0.000079  0.000154  0.000512  0.000946 -0.000013 -0.000268
  2C   2pz       -0.000472  0.000255 -0.000539 -0.000539  0.000061  0.000269
  2C   2px       -0.000442  0.001709 -0.003809 -0.004997  0.000190  0.001174
  2C   2py       -0.000983 -0.003885  0.000862 -0.000890  0.000287  0.007127
  2C   1dz2       0.000094  0.000168 -0.000039 -0.000086  0.000210  0.002491
  2C   1dxz      -0.000054 -0.000041  0.000006  0.000051 -0.000029 -0.000432
  2C   1dyz      -0.000028 -0.000012 -0.000073 -0.000121 -0.000006 -0.000184
  2C   1dx2y2    -0.000043 -0.000095  0.000351  0.000672  0.000025  0.000320
  2C   1dxy       0.000022 -0.000047 -0.000526 -0.001002  0.000036  0.000351
  3C   1s         0.000044 -0.000018 -0.007857 -0.013557 -0.005465 -0.043834
  3C   2s        -0.000269 -0.000064  0.000684  0.001007 -0.000259  0.000845
  3C   3s        -0.005033  0.008207 -0.000533  0.004364 -0.001035 -0.021675
  3C   1pz       -0.000153  0.000052 -0.000092 -0.000003 -0.000039 -0.000326
  3C   1px        0.000072  0.000165 -0.000327 -0.000634 -0.000118 -0.001767
  3C   1py       -0.000011  0.000150 -0.000003 -0.000160 -0.000185 -0.001353
  3C   2pz        0.000832  0.000156 -0.000112 -0.000986 -0.000110 -0.000149
  3C   2px        0.001723  0.002918 -0.001622 -0.004513 -0.000563 -0.002693
  3C   2py       -0.004338  0.003836 -0.006703 -0.005385 -0.000639 -0.005808
  3C   1dz2       0.000234  0.000035 -0.000085 -0.000240 -0.000046 -0.000958
  3C   1dxz      -0.000011 -0.000034  0.000045  0.000081 -0.000001  0.000324
  3C   1dyz       0.000072  0.000011  0.000052  0.000062  0.000042  0.000171
  3C   1dx2y2    -0.000002 -0.000111  0.000177  0.000158  0.000081  0.000826
  3C   1dxy       0.000299  0.000564  0.000183  0.000410  0.000050  0.000987
  4C   1s        -0.000082 -0.000218  0.000070  0.001296 -0.000880 -0.000727
  4C   2s        -0.000987  0.000582  0.000319  0.001386 -0.000449 -0.000225
  4C   3s        -0.013030 -0.014205  0.009950  0.005237  0.004124  0.001790
  4C   1pz        0.000055  0.000111  0.000124 -0.000011  0.000178 -0.000003
  4C   1px        0.000093  0.001194 -0.000249 -0.000388 -0.000016 -0.000195
  4C   1py        0.000492  0.000365 -0.000120 -0.000158  0.000094  0.000268
  4C   2pz       -0.001677 -0.001246 -0.000347  0.000701 -0.000528  0.000109
  4C   2px       -0.009971 -0.016018  0.002231  0.006324  0.000854  0.008498
  4C   2py       -0.013325  0.000829 -0.000869  0.001934 -0.000148 -0.011750
  4C   1dz2      -0.000209 -0.000215 -0.000048  0.000035 -0.000068  0.000093
  4C   1dxz       0.000179  0.000230  0.000030 -0.000020  0.000035 -0.000024
  4C   1dyz       0.000319  0.000167  0.000040 -0.000035  0.000021  0.000001
  4C   1dx2y2    -0.000059  0.000380 -0.000062 -0.000015 -0.000018 -0.000193
  4C   1dxy       0.000781  0.000851 -0.000024 -0.000066  0.000055  0.000089
  5C   1s        -0.000015  0.000058 -0.007290 -0.014210  0.008997  0.064579
  5C   2s        -0.000088 -0.000740  0.000671  0.000954  0.000624  0.002793
  5C   3s         0.008306 -0.001388  0.000262  0.006647 -0.001126  0.014821
  5C   1pz       -0.000047 -0.000020 -0.000007 -0.000014 -0.000003  0.000135
  5C   1px        0.000370  0.000026 -0.000162 -0.000285  0.000108  0.000929
  5C   1py        0.000030  0.000084 -0.000241 -0.000409 -0.000013  0.000187
  5C   2pz        0.000414 -0.000295 -0.000141 -0.000747  0.000291  0.000321
  5C   2px        0.001584 -0.003948 -0.003457 -0.005712 -0.000669  0.005333
  5C   2py        0.000558  0.002450  0.001116 -0.000822  0.000726 -0.001785
  5C   1dz2       0.000029  0.000123 -0.000056 -0.000133  0.000044  0.000214
  5C   1dxz       0.000010 -0.000013  0.000061  0.000069  0.000021 -0.000095
  5C   1dyz      -0.000018 -0.000027 -0.000002  0.000020 -0.000028 -0.000055
  5C   1dx2y2     0.000413  0.000280  0.000133  0.000247 -0.000051 -0.000220
  5C   1dxy       0.000008  0.000029  0.000137  0.000228 -0.000039 -0.000464
  6H   1s         0.000028 -0.000059 -0.000206 -0.000215 -0.000101 -0.000581
  6H   2s        -0.001679 -0.001230 -0.000401 -0.000441 -0.000152 -0.001000
  6H   1pz       -0.000020  0.000020  0.000017  0.000056 -0.000027 -0.000017
  6H   1px        0.000171  0.000209  0.000239  0.000371  0.000017 -0.000346
  6H   1py       -0.000062 -0.000038 -0.000006  0.000009  0.000027  0.000094
  7H   1s        -0.000328 -0.000234  0.000819  0.001366 -0.000229 -0.002919
  7H   2s        -0.000754 -0.000582 -0.000124 -0.000412  0.000193  0.000680
  7H   1pz        0.000028  0.000008  0.000054  0.000079  0.000003 -0.000043
  7H   1px        0.000039  0.000035  0.000380  0.000715 -0.000088 -0.000817
  7H   1py        0.000075  0.000115  0.000099  0.000184  0.000078  0.000666
  8H   1s         0.000090  0.000152  0.002641  0.004807 -0.000108 -0.001321
  8H   2s        -0.000013  0.000104 -0.001981 -0.003643  0.000201  0.002362
  8H   1pz       -0.000025  0.000003  0.000137  0.000264 -0.000014 -0.000123
  8H   1px       -0.000034 -0.000097  0.001110  0.002002 -0.000109 -0.001187
  8H   1py       -0.000048  0.000048  0.000616  0.001130  0.000034  0.000114
  9H   1s        -0.000152 -0.000402  0.001142  0.001832  0.000460  0.005599
  9H   2s        -0.000332 -0.000967  0.000004 -0.000815 -0.000444 -0.004935
  9H   1pz        0.000036 -0.000031  0.000069  0.000090  0.000005  0.000132
  9H   1px        0.000010  0.000005  0.000334  0.000550 -0.000018 -0.000165
  9H   1py       -0.000031 -0.000023  0.000406  0.000732  0.000235  0.002941
 10H   1s        -0.000110  0.000095 -0.000157 -0.000253  0.000202  0.000823
 10H   2s        -0.001877 -0.000980 -0.002137  0.000228 -0.000396  0.001755
 10H   1pz        0.000065 -0.000052  0.000049  0.000075  0.000011  0.000090
 10H   1px       -0.000118  0.000006  0.000268  0.000227  0.000068  0.000517
 10H   1py        0.000089  0.000192  0.000138  0.000383 -0.000041  0.000357
 11N   1s         0.621148  0.768618  0.000012  0.000008  0.000035  0.000014
 11N   2s        -0.031659 -0.034286  0.000265  0.000379  0.000509  0.000232
 11N   3s         0.035962  0.028875 -0.002418 -0.006706 -0.000776 -0.002405
 11N   1pz       -0.001307 -0.000650 -0.000037 -0.000006  0.000030  0.000011
 11N   1px        0.001477 -0.000867 -0.000071 -0.000054 -0.000016 -0.000081
 11N   1py       -0.001765 -0.001466  0.000062  0.000022  0.000068 -0.000002
 11N   2pz       -0.003534 -0.001702 -0.000106  0.000631  0.000063  0.000202
 11N   2px       -0.008378 -0.004795  0.000880  0.000327  0.001156 -0.001516
 11N   2py       -0.006757 -0.006670  0.000854  0.001567  0.000634  0.001633
 11N   1dz2       0.001060 -0.000217 -0.000007 -0.000017  0.000010  0.000044
 11N   1dxz       0.001175 -0.000138 -0.000040  0.000060 -0.000046  0.000057
 11N   1dyz      -0.000137  0.000233 -0.000025 -0.000036 -0.000072 -0.000038
 11N   1dx2y2    -0.002036  0.000134  0.000006 -0.000057  0.000010  0.000131
 11N   1dxy       0.000925 -0.000196 -0.000056 -0.000025 -0.000027 -0.000064
 12N   1s        -0.767935  0.621993  0.000014 -0.000001  0.000020  0.000032
 12N   2s         0.038118 -0.026919  0.000429 -0.000181  0.000307  0.000460
 12N   3s        -0.041197  0.020735 -0.005669  0.004392 -0.002375 -0.000351
 12N   1pz        0.000491 -0.001199  0.000027  0.000021 -0.000035  0.000042
 12N   1px        0.002672  0.000002  0.000084 -0.000004  0.000068  0.000054
 12N   1py        0.000586 -0.001081 -0.000074 -0.000005 -0.000035  0.000027
 12N   2pz        0.008763 -0.004967  0.001548 -0.000368  0.000694  0.000862
 12N   2px        0.000109 -0.001423  0.000401 -0.000900  0.002017 -0.000725
 12N   2py        0.009288 -0.002991  0.000907 -0.000448 -0.000469  0.000875
 12N   1dz2      -0.000751 -0.000377  0.000001 -0.000015 -0.000090  0.000049
 12N   1dxz      -0.001463 -0.000334  0.000037 -0.000072 -0.000078 -0.000019
 12N   1dyz       0.000415  0.000266 -0.000052  0.000002 -0.000064 -0.000056
 12N   1dx2y2     0.001441  0.000624  0.000031  0.000052 -0.000048  0.000039
 12N   1dxy      -0.001374 -0.000381 -0.000035  0.000010 -0.000093 -0.000014
 13C   1s         0.000126 -0.000196  0.000734 -0.001041 -0.000826 -0.000756
 13C   2s         0.000844  0.000776  0.001014 -0.000998 -0.000314 -0.000411
 13C   3s         0.015710 -0.011171  0.011196  0.000855  0.002439  0.003870
 13C   1pz       -0.000560  0.000657 -0.000371  0.000109  0.000135 -0.000030
 13C   1px       -0.000131 -0.000590  0.000217 -0.000060  0.000311  0.000093
 13C   1py       -0.000319  0.000783 -0.000188  0.000182 -0.000064  0.000157
 13C   2pz        0.015126 -0.002610  0.002527 -0.003152 -0.005846  0.001395
 13C   2px       -0.000495  0.011010 -0.003383  0.001261 -0.012748  0.001245
 13C   2py        0.010554 -0.008375  0.003255 -0.003295  0.003798 -0.000632
 13C   1dz2      -0.000342  0.000173 -0.000018  0.000007  0.000121  0.000013
 13C   1dxz       0.000074 -0.000339  0.000078  0.000041  0.000089  0.000025
 13C   1dyz      -0.000864  0.000586 -0.000018  0.000084 -0.000026  0.000087
 13C   1dx2y2     0.000450 -0.000414  0.000033 -0.000012 -0.000040 -0.000013
 13C   1dxy      -0.000221 -0.000093  0.000003  0.000005  0.000173 -0.000045
 14C   1s         0.000002  0.000060 -0.014121  0.008277  0.066834 -0.001972
 14C   2s         0.000241 -0.000705  0.001086 -0.000456  0.002847  0.000152
 14C   3s        -0.007834 -0.003094  0.003734 -0.005421  0.014682 -0.003678
 14C   1pz       -0.000217  0.000043 -0.000469  0.000243  0.000533 -0.000048
 14C   1px        0.000244  0.000076 -0.000053  0.000024 -0.000490 -0.000003
 14C   1py       -0.000182 -0.000031 -0.000235  0.000125  0.000716 -0.000056
 14C   2pz       -0.001015  0.000177 -0.001971  0.002081  0.000816  0.000068
 14C   2px       -0.000277  0.004044  0.004135 -0.001028 -0.004342  0.001785
 14C   2py       -0.000811 -0.002551 -0.003908  0.002334  0.003235 -0.000626
 14C   1dz2       0.000176 -0.000068  0.000045 -0.000021 -0.000189  0.000026
 14C   1dxz       0.000374 -0.000196 -0.000179  0.000102  0.000199  0.000011
 14C   1dyz      -0.000043 -0.000035  0.000258 -0.000152 -0.000484  0.000007
 14C   1dx2y2     0.000089 -0.000071 -0.000160  0.000057  0.000223 -0.000052
 14C   1dxy       0.000192 -0.000019 -0.000142  0.000080  0.000112  0.000001
 15C   1s         0.000019 -0.000003 -0.247818  0.136470  0.401462 -0.027809
 15C   2s        -0.000809  0.000246 -0.009538  0.005191  0.019943 -0.001422
 15C   3s         0.005853 -0.002588 -0.006026  0.005264 -0.006752  0.001267
 15C   1pz       -0.000009  0.000078 -0.001546  0.000865  0.000529 -0.000037
 15C   1px        0.000122 -0.000051 -0.001118  0.000636  0.000352 -0.000026
 15C   1py       -0.000106  0.000084 -0.000346  0.000202  0.000151 -0.000012
 15C   2pz        0.000522 -0.001948 -0.003762  0.002181 -0.002634 -0.000135
 15C   2px       -0.003098  0.000906 -0.000325 -0.000689  0.003319 -0.000919
 15C   2py        0.002572 -0.001833 -0.002471  0.001837 -0.003969  0.000360
 15C   1dz2       0.000055 -0.000034  0.000568 -0.000312 -0.000185  0.000016
 15C   1dxz       0.000068 -0.000058  0.000899 -0.000498 -0.000030  0.000005
 15C   1dyz       0.000168 -0.000067  0.000081 -0.000041  0.000297 -0.000020
 15C   1dx2y2     0.000008 -0.000021  0.000220 -0.000120  0.000144  0.000002
 15C   1dxy      -0.000094  0.000023  0.000503 -0.000285 -0.000559  0.000018
 16C   1s         0.000017 -0.000012 -0.765487  0.421904  0.229126 -0.021162
 16C   2s        -0.000172  0.000099 -0.037247  0.020451  0.013637 -0.001306
 16C   3s        -0.004172  0.003983  0.018114 -0.012225 -0.016676  0.001258
 16C   1pz       -0.000101  0.000026  0.000385 -0.000223 -0.001113  0.000080
 16C   1px       -0.000013 -0.000033 -0.000324  0.000175 -0.002632  0.000205
 16C   1py       -0.000050  0.000054  0.000455 -0.000263  0.000934 -0.000087
 16C   2pz       -0.001345  0.000414  0.003493 -0.002242 -0.002977 -0.000054
 16C   2px        0.000485 -0.002419 -0.000715  0.000956 -0.002158 -0.000208
 16C   2py       -0.001464  0.001642  0.002976 -0.002088 -0.000582  0.000138
 16C   1dz2      -0.000014 -0.000005 -0.000405  0.000219 -0.000879  0.000063
 16C   1dxz       0.000017 -0.000021 -0.000110  0.000061 -0.000152 -0.000005
 16C   1dyz       0.000001  0.000012 -0.001335  0.000734  0.000356 -0.000033
 16C   1dx2y2     0.000026 -0.000002  0.000055 -0.000031  0.000552 -0.000053
 16C   1dxy      -0.000022  0.000005  0.000743 -0.000416 -0.001720  0.000149
 17C   1s         0.000007 -0.000024 -0.319156  0.173986 -0.864931  0.076603
 17C   2s        -0.000423  0.000744 -0.013290  0.007169 -0.045762  0.004067
 17C   3s         0.002272 -0.004418 -0.004582  0.003626  0.031859 -0.003691
 17C   1pz       -0.000107  0.000129  0.000060 -0.000036  0.000000  0.000005
 17C   1px       -0.000031  0.000054  0.001670 -0.000931 -0.000499  0.000056
 17C   1py       -0.000056 -0.000010 -0.001025  0.000570  0.000332 -0.000043
 17C   2pz        0.001279 -0.002262 -0.002021  0.001832  0.006115 -0.000731
 17C   2px        0.001172 -0.003179  0.003871 -0.000720  0.003426 -0.000506
 17C   2py        0.000549  0.000962 -0.004071  0.001556  0.001713 -0.000097
 17C   1dz2      -0.000038 -0.000019 -0.000761  0.000449 -0.000266  0.000020
 17C   1dxz       0.000027  0.000020 -0.000201  0.000104 -0.001326  0.000119
 17C   1dyz       0.000102 -0.000131 -0.000427  0.000234 -0.001339  0.000127
 17C   1dx2y2     0.000007 -0.000003  0.000355 -0.000193 -0.000865  0.000070
 17C   1dxy      -0.000110  0.000116 -0.000688  0.000403  0.001445 -0.000121
 18C   1s        -0.000040 -0.000027 -0.014042  0.007330 -0.044052  0.002019
 18C   2s         0.000276 -0.000006  0.001133 -0.000494  0.000738 -0.000394
 18C   3s         0.003209  0.009078  0.001869 -0.003933 -0.021696  0.002570
 18C   1pz       -0.000119  0.000147 -0.000313  0.000287 -0.001697  0.000110
 18C   1px        0.000119  0.000024  0.000338 -0.000188  0.000242 -0.000090
 18C   1py        0.000047  0.000168 -0.000445  0.000195 -0.001426  0.000125
 18C   2pz        0.002121  0.004806 -0.008196  0.001725 -0.005811  0.000229
 18C   2px        0.003235  0.001047 -0.002721 -0.001099 -0.001717  0.000189
 18C   2py       -0.001690  0.001923 -0.003605  0.002457 -0.002307 -0.000072
 18C   1dz2      -0.000162  0.000350  0.000111 -0.000143  0.000280 -0.000065
 18C   1dxz       0.000175 -0.000069 -0.000182  0.000031 -0.000453  0.000018
 18C   1dyz      -0.000113  0.000237  0.000413 -0.000249  0.001323 -0.000137
 18C   1dx2y2     0.000253 -0.000186 -0.000172  0.000088 -0.000383  0.000060
 18C   1dxy      -0.000311  0.000186 -0.000110  0.000045 -0.000668  0.000087
 19H   1s         0.000088  0.000116 -0.000265  0.000128  0.000844  0.000060
 19H   2s         0.002040 -0.000567 -0.001668 -0.001329  0.001651 -0.000726
 19H   1pz       -0.000031  0.000176  0.000374 -0.000206  0.000462 -0.000087
 19H   1px       -0.000176  0.000052 -0.000013 -0.000129 -0.000110 -0.000051
 19H   1py        0.000012 -0.000017  0.000305 -0.000085  0.000412 -0.000024
 20H   1s        -0.000015 -0.000064 -0.000284  0.000070 -0.000609 -0.000003
 20H   2s         0.001898 -0.000853 -0.000562  0.000153 -0.001055  0.000016
 20H   1pz       -0.000042  0.000043  0.000156 -0.000074 -0.000067  0.000052
 20H   1px        0.000191 -0.000119 -0.000255  0.000104  0.000283 -0.000056
 20H   1py       -0.000106  0.000116  0.000274 -0.000142 -0.000216  0.000027
 21H   1s         0.000370 -0.000160  0.001455 -0.000734 -0.003044  0.000272
 21H   2s         0.000859 -0.000412 -0.000373  0.000308  0.000853  0.000074
 21H   1pz       -0.000085  0.000088  0.000410 -0.000237  0.000207 -0.000011
 21H   1px       -0.000039  0.000040 -0.000353  0.000206  0.001002 -0.000053
 21H   1py       -0.000060  0.000027  0.000515 -0.000284 -0.000489  0.000036
 22H   1s        -0.000120  0.000130  0.004781 -0.002635 -0.001287  0.000118
 22H   2s        -0.000009  0.000105 -0.003579  0.001993  0.002270 -0.000202
 22H   1pz        0.000043  0.000004  0.001644 -0.000902 -0.000337  0.000049
 22H   1px       -0.000004  0.000097 -0.000589  0.000312  0.000824 -0.000052
 22H   1py        0.000054 -0.000039  0.001496 -0.000825 -0.000770  0.000063
 23H   1s         0.000232 -0.000362  0.001972 -0.000952  0.005561 -0.000491
 23H   2s         0.000526 -0.000876 -0.000477  0.000713 -0.004850  0.000405
 23H   1pz        0.000036  0.000004  0.000806 -0.000436  0.002197 -0.000201
 23H   1px        0.000016 -0.000028  0.000100 -0.000066  0.001891 -0.000172
 23H   1py       -0.000025 -0.000030  0.000503 -0.000242  0.000293 -0.000034
                      6         7         8         9        10        11   
                 -10.10067 -10.10066 -10.09989 -10.09988 -10.09911 -10.09905
                   2.00000   2.00000   2.00000   2.00000   2.00000   2.00000
                  --------  --------  --------  --------  --------  --------
  0C   1s         0.118667  0.855329  0.019142  0.090152 -0.008970 -0.012571
  0C   2s         0.006283  0.045381  0.001935  0.008616  0.000295  0.000385
  0C   3s        -0.003250 -0.035894 -0.001043 -0.015211  0.001588  0.005525
  0C   1pz       -0.000008 -0.000096  0.000072  0.000324 -0.000042  0.000030
  0C   1px       -0.000044 -0.000327  0.000485  0.002187  0.000191  0.000185
  0C   1py       -0.000144 -0.001146  0.000322  0.001450 -0.000061 -0.000147
  0C   2pz       -0.000045 -0.000223  0.000150  0.000215  0.000274  0.000034
  0C   2px        0.000118 -0.003833  0.000847  0.000461 -0.000046 -0.000139
  0C   2py        0.000358  0.003477  0.000541  0.001416  0.001397  0.001146
  0C   1dz2      -0.000373 -0.002714 -0.000317 -0.001405  0.000075  0.000112
  0C   1dxz       0.000052  0.000411  0.000096  0.000422 -0.000027 -0.000010
  0C   1dyz       0.000028  0.000232  0.000051  0.000221 -0.000035  0.000001
  0C   1dx2y2    -0.000056 -0.000438  0.000166  0.000814  0.000009 -0.000051
  0C   1dxy      -0.000079 -0.000565  0.000269  0.001131  0.000017  0.000015
  1C   1s        -0.049345 -0.380785  0.001765  0.001296  0.002806  0.002938
  1C   2s        -0.003176 -0.024201  0.000147  0.000432  0.000265  0.000384
  1C   3s         0.002772  0.032633 -0.002571  0.003639  0.004738  0.002941
  1C   1pz       -0.000024 -0.000165  0.000007  0.000028 -0.000008  0.000014
  1C   1px       -0.000055 -0.000441  0.000042  0.000356 -0.000060 -0.000126
  1C   1py       -0.000254 -0.001780 -0.000068 -0.000475  0.000199  0.000348
  1C   2pz        0.000052  0.000491 -0.000245 -0.000387 -0.000415 -0.000071
  1C   2px       -0.000045  0.004016 -0.002322 -0.003799  0.001030  0.000264
  1C   2py       -0.000100  0.000123  0.000097  0.001123 -0.000969 -0.003734
  1C   1dz2       0.000317  0.002423  0.000049  0.000288  0.000157  0.000165
  1C   1dxz      -0.000044 -0.000343 -0.000007 -0.000036 -0.000060 -0.000033
  1C   1dyz      -0.000038 -0.000272 -0.000014 -0.000057  0.000042 -0.000014
  1C   1dx2y2     0.000138  0.000946  0.000030  0.000198 -0.000073 -0.000141
  1C   1dxy       0.000006  0.000106 -0.000041 -0.000157  0.000056  0.000039
  2C   1s         0.030914  0.274209 -0.010134 -0.030291  0.027785  0.033695
  2C   2s         0.001724  0.015318 -0.000167 -0.000162  0.004787  0.004572
  2C   3s        -0.000573 -0.017967  0.008614  0.009985 -0.019227 -0.011671
  2C   1pz       -0.000023 -0.000102  0.000007  0.000047  0.000165  0.000254
  2C   1px       -0.000123 -0.001091  0.000117 -0.000019  0.001713  0.001803
  2C   1py        0.000044  0.000368  0.000086  0.000340  0.000795  0.000784
  2C   2pz       -0.000042  0.000375  0.000215  0.000387  0.001110 -0.000158
  2C   2px        0.000279  0.003910  0.001113  0.003684 -0.002877  0.001947
  2C   2py        0.001207  0.000381  0.003729 -0.000227 -0.003904 -0.000165
  2C   1dz2      -0.000176 -0.001390 -0.000025  0.000115 -0.000741 -0.000987
  2C   1dxz       0.000010  0.000221 -0.000012 -0.000003  0.000402  0.000259
  2C   1dyz       0.000000  0.000053  0.000001 -0.000015  0.000227  0.000145
  2C   1dx2y2    -0.000004 -0.000013  0.000019  0.000077  0.000439  0.000533
  2C   1dxy      -0.000056 -0.000570  0.000081 -0.000032  0.000770  0.000943
  3C   1s        -0.000367 -0.001784 -0.012410 -0.007594 -0.661727 -0.731257
  3C   2s        -0.000142 -0.001997 -0.000678  0.000144 -0.036539 -0.037746
  3C   3s        -0.003918 -0.005074 -0.004055  0.005216  0.038313  0.017910
  3C   1pz       -0.000076  0.000051 -0.000095 -0.000011  0.000771 -0.000116
  3C   1px        0.000093  0.000788 -0.000306 -0.000238 -0.000328  0.000022
  3C   1py        0.000048  0.000312  0.000044 -0.000172  0.000113  0.000063
  3C   2pz        0.000460  0.000172  0.001075  0.001098 -0.003956  0.000443
  3C   2px        0.001247  0.000918  0.007967  0.008918 -0.004111 -0.003157
  3C   2py       -0.002577 -0.003173 -0.001657  0.008434  0.001594 -0.001608
  3C   1dz2       0.000079  0.000444  0.000006  0.000129  0.001528  0.002034
  3C   1dxz      -0.000017 -0.000128 -0.000031  0.000005 -0.000399 -0.000384
  3C   1dyz      -0.000004 -0.000064 -0.000029  0.000017 -0.000088 -0.000024
  3C   1dx2y2     0.000013 -0.000239  0.000050 -0.000041 -0.000116 -0.000129
  3C   1dxy      -0.000073 -0.000348 -0.000057  0.000358  0.000297  0.000301
  4C   1s        -0.000094  0.001953 -0.002343 -0.009435 -0.007596 -0.008269
  4C   2s        -0.000298 -0.000371  0.000538  0.002705  0.001368  0.001431
  4C   3s         0.003320 -0.000540 -0.001622 -0.016124 -0.015335 -0.009007
  4C   1pz        0.000036 -0.000039 -0.000090 -0.000099  0.000060  0.000087
  4C   1px       -0.000016  0.000091 -0.000440 -0.001760 -0.000284 -0.000110
  4C   1py        0.000040  0.000193  0.000220  0.001065 -0.001579 -0.001647
  4C   2pz       -0.000588 -0.000628 -0.000866 -0.000581  0.000588 -0.001229
  4C   2px       -0.001345 -0.002502 -0.004699 -0.011822  0.000407  0.001970
  4C   2py       -0.003416 -0.008898 -0.002729  0.008490 -0.001279 -0.009610
  4C   1dz2      -0.000037 -0.000078 -0.000243 -0.001025 -0.000692 -0.000845
  4C   1dxz       0.000003  0.000006 -0.000053  0.000159 -0.000040  0.000034
  4C   1dyz       0.000020  0.000013 -0.000041 -0.000044 -0.000040  0.000114
  4C   1dx2y2    -0.000046 -0.000077  0.000110  0.000754 -0.001137 -0.001380
  4C   1dxy       0.000021  0.000129 -0.000321 -0.001598  0.000049  0.000085
  5C   1s         0.012693  0.071421 -0.216676 -0.958271 -0.002714  0.012413
  5C   2s         0.000264  0.000044 -0.011541 -0.050281  0.000527  0.000876
  5C   3s        -0.000129  0.012086  0.005352  0.025086  0.002487  0.005719
  5C   1pz        0.000020  0.000250  0.000034  0.000087 -0.000133  0.000076
  5C   1px        0.000301  0.002137 -0.000037 -0.000051 -0.000033 -0.000168
  5C   1py        0.000118  0.000960  0.000031  0.000016 -0.000129 -0.000095
  5C   2pz        0.000309  0.000340  0.000064 -0.000674  0.000642  0.000757
  5C   2px        0.000730  0.002406  0.001156 -0.002971  0.003473  0.006968
  5C   2py        0.001271  0.001376  0.000321 -0.001650  0.001582  0.002078
  5C   1dz2       0.000131  0.000922  0.000579  0.002733  0.000143  0.000011
  5C   1dxz      -0.000031 -0.000304 -0.000096 -0.000438 -0.000012  0.000052
  5C   1dyz      -0.000031 -0.000172 -0.000076 -0.000313 -0.000034 -0.000020
  5C   1dx2y2    -0.000068 -0.000572  0.000149  0.000425  0.000098  0.000182
  5C   1dxy      -0.000144 -0.001098 -0.000022 -0.000079  0.000048  0.000067
  6H   1s        -0.000209 -0.000840  0.001124  0.005343 -0.000335 -0.000664
  6H   2s        -0.000393 -0.001770 -0.001475 -0.006104 -0.000957 -0.001464
  6H   1pz       -0.000025 -0.000058 -0.000042 -0.000150 -0.000056 -0.000003
  6H   1px       -0.000049 -0.000402 -0.000059 -0.000030 -0.000103 -0.000249
  6H   1py       -0.000024 -0.000154 -0.000771 -0.003252 -0.000027 -0.000013
  7H   1s        -0.000673 -0.005018 -0.000094 -0.000393 -0.000164 -0.000295
  7H   2s         0.000837  0.005948  0.000375  0.002041 -0.000502 -0.000939
  7H   1pz       -0.000016 -0.000157 -0.000023 -0.000098 -0.000029  0.000007
  7H   1px       -0.000350 -0.002477 -0.000191 -0.000870 -0.000008  0.000038
  7H   1py        0.000229  0.001683 -0.000021 -0.000042 -0.000044 -0.000024
  8H   1s         0.000261  0.002142 -0.000210 -0.000672 -0.000224 -0.000442
  8H   2s        -0.000573 -0.004307 -0.000351 -0.001380 -0.000469 -0.000868
  8H   1pz        0.000021  0.000193  0.000007  0.000019  0.000037 -0.000000
  8H   1px        0.000181  0.001347  0.000058  0.000140 -0.000043 -0.000033
  8H   1py        0.000150  0.001116 -0.000029 -0.000067  0.000080  0.000167
  9H   1s        -0.000015 -0.001054  0.000226 -0.000295 -0.000165 -0.000064
  9H   2s         0.000678  0.003336  0.000575 -0.001412  0.001039  0.001533
  9H   1pz        0.000002 -0.000058  0.000003 -0.000001 -0.000180 -0.000030
  9H   1px       -0.000006 -0.000081 -0.000042 -0.000116 -0.000098 -0.000427
  9H   1py       -0.000139 -0.001157  0.000034  0.000076 -0.000341 -0.000417
 10H   1s         0.000019 -0.000046 -0.000483 -0.000790  0.002756  0.004407
 10H   2s        -0.001328 -0.000156 -0.004415 -0.001115 -0.005059 -0.005031
 10H   1pz       -0.000025 -0.000037 -0.000080 -0.000023 -0.000102 -0.000091
 10H   1px        0.000099 -0.000139  0.000235 -0.000425 -0.001910 -0.002002
 10H   1py       -0.000029  0.000110 -0.000130 -0.000264  0.001172  0.001307
 11N   1s        -0.000006  0.000001 -0.000071 -0.000083 -0.000069  0.000012
 11N   2s        -0.000120 -0.000165 -0.000788 -0.001152 -0.000743  0.000238
 11N   3s         0.000819  0.003903  0.001315  0.012147  0.004113  0.003657
 11N   1pz       -0.000007  0.000007 -0.000041  0.000024 -0.000182  0.000107
 11N   1px       -0.000023  0.000015  0.000061  0.000067 -0.000117 -0.000229
 11N   1py        0.000012 -0.000018 -0.000139 -0.000194 -0.000022  0.000101
 11N   2pz       -0.000011 -0.000197  0.000662 -0.001188 -0.000870  0.000134
 11N   2px       -0.000918 -0.001916 -0.002736  0.002015 -0.001628 -0.002345
 11N   2py       -0.000057 -0.000263 -0.000912 -0.004457 -0.000592  0.000942
 11N   1dz2       0.000009  0.000042 -0.000021 -0.000064  0.000107  0.000127
 11N   1dxz       0.000000  0.000019  0.000110 -0.000173  0.000005  0.000020
 11N   1dyz       0.000004 -0.000004  0.000051  0.000094  0.000077 -0.000110
 11N   1dx2y2     0.000024  0.000086 -0.000014 -0.000130  0.000146  0.000180
 11N   1dxy      -0.000017 -0.000012  0.000088  0.000169 -0.000023  0.000015
 12N   1s         0.000001  0.000007 -0.000105 -0.000028  0.000067  0.000019
 12N   2s         0.000196  0.000083 -0.001379 -0.000216  0.000716  0.000311
 12N   3s        -0.003979  0.000219  0.011535 -0.004040 -0.004458  0.003233
 12N   1pz        0.000009 -0.000005 -0.000153 -0.000002 -0.000002 -0.000063
 12N   1px        0.000013 -0.000022 -0.000196 -0.000063 -0.000015  0.000262
 12N   1py       -0.000007  0.000022  0.000031 -0.000026  0.000219 -0.000018
 12N   2pz        0.001039  0.000187 -0.002927 -0.001024  0.000837 -0.000231
 12N   2px       -0.001141 -0.000293 -0.003390  0.003399 -0.000604  0.002163
 12N   2py        0.001400  0.000209 -0.000693 -0.000979  0.001828 -0.001010
 12N   1dz2       0.000057  0.000010  0.000150 -0.000072  0.000145 -0.000021
 12N   1dxz       0.000066 -0.000003  0.000019  0.000044  0.000147 -0.000170
 12N   1dyz       0.000017  0.000002  0.000169  0.000026  0.000011 -0.000097
 12N   1dx2y2     0.000033 -0.000011  0.000054 -0.000143  0.000050 -0.000107
 12N   1dxy       0.000025  0.000001  0.000157 -0.000061 -0.000021 -0.000069
 13C   1s        -0.001891  0.000598 -0.009529  0.001945  0.008386 -0.007476
 13C   2s         0.000414  0.000185  0.002673 -0.000678 -0.001503  0.001287
 13C   3s        -0.000381 -0.003300 -0.015248  0.005470  0.016159 -0.007438
 13C   1pz       -0.000198  0.000046  0.000133 -0.000036  0.001543 -0.001252
 13C   1px       -0.000042 -0.000036  0.001781 -0.000416  0.000797 -0.000786
 13C   1py       -0.000045 -0.000008 -0.001049  0.000156  0.000292 -0.000131
 13C   2pz        0.008289  0.000899  0.000101 -0.004306  0.001720 -0.006184
 13C   2px        0.003774  0.000315  0.012112 -0.004428  0.001532 -0.007441
 13C   2py        0.003250  0.000792 -0.007585 -0.000534 -0.000503 -0.000833
 13C   1dz2      -0.000116  0.000006 -0.000989  0.000321 -0.000745  0.000646
 13C   1dxz      -0.000058 -0.000029  0.000273 -0.000068 -0.001177  0.001212
 13C   1dyz      -0.000112 -0.000005 -0.000115  0.000016 -0.000235  0.000342
 13C   1dx2y2     0.000017 -0.000018  0.000952 -0.000159 -0.000443  0.000401
 13C   1dxy      -0.000029 -0.000007 -0.001462  0.000374 -0.000139  0.000194
 14C   1s        -0.070136  0.006626 -0.958259  0.216893  0.001325  0.012505
 14C   2s        -0.000036 -0.000242 -0.050350  0.011224 -0.000619  0.000812
 14C   3s        -0.011329  0.003297  0.024934 -0.005962 -0.003043  0.005447
 14C   1pz       -0.001566  0.000211 -0.000044  0.000015  0.000080 -0.000173
 14C   1px        0.000775 -0.000086  0.000100  0.000017  0.000101  0.000102
 14C   1py       -0.001540  0.000215  0.000041 -0.000010  0.000143 -0.000034
 14C   2pz       -0.002197 -0.000639 -0.001778  0.001655 -0.002913  0.004073
 14C   2px        0.000410 -0.000519  0.000443 -0.000843  0.001468 -0.003063
 14C   2py       -0.001861 -0.000312 -0.001896  0.001754 -0.003206  0.004639
 14C   1dz2       0.000450 -0.000060 -0.000549  0.000112  0.000025 -0.000037
 14C   1dxz      -0.000301  0.000048 -0.001404  0.000291  0.000156 -0.000125
 14C   1dyz       0.001321 -0.000177 -0.001766  0.000426  0.000056  0.000059
 14C   1dx2y2    -0.000402  0.000069 -0.000802  0.000190  0.000096 -0.000090
 14C   1dxy      -0.000499  0.000074  0.001354 -0.000359 -0.000030 -0.000087
 15C   1s        -0.843879  0.112168  0.089276 -0.021428  0.010159 -0.011562
 15C   2s        -0.044843  0.005971  0.008592 -0.001957 -0.000332  0.000357
 15C   3s         0.035391 -0.006412 -0.014167  0.005602 -0.002132  0.005333
 15C   1pz        0.001044 -0.000147  0.001962 -0.000452 -0.000046 -0.000055
 15C   1px        0.000515 -0.000078 -0.000492  0.000114  0.000204 -0.000181
 15C   1py        0.000390 -0.000058  0.001694 -0.000391 -0.000085  0.000111
 15C   2pz       -0.001302 -0.000029  0.001435  0.000130 -0.001062  0.000741
 15C   2px       -0.004361  0.001095  0.000472 -0.000438 -0.001050  0.000687
 15C   2py        0.001935 -0.000627  0.000821  0.000357 -0.000335  0.000025
 15C   1dz2      -0.000227  0.000029  0.000434 -0.000084 -0.000018  0.000003
 15C   1dxz      -0.001572  0.000214 -0.000290  0.000076  0.000051  0.000000
 15C   1dyz      -0.001378  0.000187  0.001714 -0.000384  0.000063 -0.000060
 15C   1dx2y2    -0.001104  0.000145 -0.000349  0.000074  0.000028 -0.000035
 15C   1dxy       0.001559 -0.000206 -0.000897  0.000216 -0.000045  0.000094
 16C   1s         0.394186 -0.055200  0.001971  0.001007 -0.003103  0.002659
 16C   2s         0.024917 -0.003452  0.000456 -0.000055 -0.000303  0.000356
 16C   3s        -0.032819  0.006073  0.002172 -0.003882 -0.005008  0.002456
 16C   1pz        0.001515 -0.000200 -0.000232  0.000067 -0.000157  0.000203
 16C   1px        0.000765 -0.000098 -0.000489  0.000161 -0.000184  0.000280
 16C   1py        0.000589 -0.000078  0.000177 -0.000059  0.000025 -0.000027
 16C   2pz       -0.001644  0.000553 -0.000871 -0.000492  0.000441 -0.002813
 16C   2px        0.002321 -0.000658  0.003447  0.000056  0.001690 -0.002263
 16C   2py       -0.002730  0.000746 -0.002878 -0.000355 -0.000154 -0.000290
 16C   1dz2       0.000604 -0.000078 -0.000192  0.000050 -0.000025  0.000055
 16C   1dxz       0.001698 -0.000230 -0.000210  0.000066  0.000031  0.000032
 16C   1dyz       0.001402 -0.000192 -0.000249  0.000060  0.000066 -0.000106
 16C   1dx2y2     0.000906 -0.000126 -0.000041  0.000018  0.000031 -0.000042
 16C   1dxy      -0.001044  0.000153  0.000015 -0.000008 -0.000199  0.000158
 17C   1s        -0.290481  0.043994 -0.031653  0.003951 -0.030999  0.030721
 17C   2s        -0.016213  0.002464 -0.000215 -0.000077 -0.005219  0.004071
 17C   3s         0.018307 -0.004314  0.012719  0.003470  0.020295 -0.009695
 17C   1pz        0.000129 -0.000027  0.000270 -0.000000 -0.001427  0.001161
 17C   1px       -0.000943  0.000151  0.000200 -0.000124  0.000689 -0.000590
 17C   1py        0.000708 -0.000102  0.000090  0.000050 -0.001353  0.001220
 17C   2pz       -0.001884 -0.000601  0.002571  0.002508  0.004723  0.001250
 17C   2px        0.002107 -0.001112 -0.001574  0.002457  0.000023 -0.001498
 17C   2py       -0.002540  0.000461  0.002744  0.000024  0.001097  0.001124
 17C   1dz2       0.000101 -0.000035 -0.000039  0.000074 -0.000247  0.000399
 17C   1dxz      -0.000744  0.000117 -0.000096  0.000006  0.000141 -0.000226
 17C   1dyz      -0.000590  0.000081 -0.000045  0.000087 -0.001199  0.001150
 17C   1dx2y2    -0.000678  0.000090 -0.000045 -0.000001  0.000409 -0.000242
 17C   1dxy       0.001059 -0.000157  0.000016 -0.000005  0.000482 -0.000524
 18C   1s         0.000856 -0.000112 -0.012246 -0.008105  0.731378 -0.661593
 18C   2s         0.001968 -0.000402 -0.000165 -0.000683  0.040122 -0.033912
 18C   3s         0.005373  0.002510  0.002969 -0.005897 -0.039908  0.014002
 18C   1pz       -0.000615  0.000044 -0.000236  0.000050  0.000360  0.000145
 18C   1px        0.000338 -0.000024  0.000133  0.000151 -0.000616 -0.000089
 18C   1py       -0.000549  0.000146 -0.000259 -0.000156 -0.000425 -0.000117
 18C   2pz        0.002525  0.001083  0.009853 -0.002865 -0.000874 -0.002931
 18C   2px        0.002901  0.001479 -0.003115 -0.005104 -0.002172  0.001181
 18C   2py       -0.000595 -0.000735  0.008645  0.001870  0.005577 -0.001122
 18C   1dz2       0.000157  0.000020  0.000157 -0.000107 -0.000025 -0.000121
 18C   1dxz      -0.000080  0.000043 -0.000116  0.000009  0.000747 -0.000735
 18C   1dyz       0.000561 -0.000060  0.000083 -0.000089  0.000949 -0.001008
 18C   1dx2y2    -0.000108  0.000015 -0.000176  0.000125  0.000495 -0.000587
 18C   1dxy      -0.000293  0.000054  0.000167 -0.000125 -0.001259  0.001338
 19H   1s         0.000064 -0.000029 -0.000921 -0.000095 -0.003182  0.004110
 19H   2s         0.000554  0.001242 -0.002908 -0.003506  0.005535 -0.004502
 19H   1pz       -0.000043 -0.000019 -0.000334  0.000193 -0.000179  0.000205
 19H   1px       -0.000117  0.000131 -0.000005 -0.000298 -0.002151  0.001893
 19H   1py        0.000095 -0.000062 -0.000241  0.000183  0.001202 -0.001012
 20H   1s         0.000852 -0.000022  0.005306 -0.001286  0.000400 -0.000626
 20H   2s         0.001793 -0.000092 -0.006142  0.001295  0.001097 -0.001362
 20H   1pz        0.000268 -0.000042 -0.002571  0.000534  0.000054 -0.000111
 20H   1px       -0.000144  0.000032 -0.001964  0.000456 -0.000047  0.000157
 20H   1py        0.000295 -0.000029 -0.000480  0.000068  0.000123 -0.000140
 21H   1s         0.004928 -0.000678 -0.000393  0.000084  0.000193 -0.000277
 21H   2s        -0.005934  0.000775  0.002001 -0.000540  0.000594 -0.000884
 21H   1pz       -0.000343  0.000055 -0.000370  0.000078  0.000027 -0.000003
 21H   1px       -0.002593  0.000341  0.000521 -0.000129  0.000037 -0.000033
 21H   1py        0.001408 -0.000187 -0.000596  0.000136  0.000030  0.000028
 22H   1s        -0.002218  0.000327 -0.000697  0.000099  0.000267 -0.000418
 22H   2s         0.004401 -0.000602 -0.001395  0.000277  0.000553 -0.000816
 22H   1pz       -0.001418  0.000191 -0.000002 -0.000001 -0.000042  0.000116
 22H   1px        0.000202 -0.000024 -0.000138  0.000006 -0.000105  0.000111
 22H   1py       -0.001097  0.000152  0.000098 -0.000006 -0.000012 -0.000004
 23H   1s         0.001136 -0.000273 -0.000169  0.000331  0.000170 -0.000047
 23H   2s        -0.003509  0.000235 -0.001026  0.001127 -0.001187  0.001422
 23H   1pz        0.000978 -0.000141  0.000014  0.000002  0.000288 -0.000478
 23H   1px        0.000697 -0.000102  0.000133 -0.000008  0.000208  0.000053
 23H   1py        0.000209 -0.000041 -0.000064  0.000009  0.000266 -0.000293
                     12        13        14        15        16        17   
                 -10.09049 -10.09040  -1.02033  -0.90613  -0.90034  -0.82481
                   2.00000   2.00000   2.00000   2.00000   2.00000   2.00000
                  --------  --------  --------  --------  --------  --------
  0C   1s        -0.000083 -0.000314  0.004802  0.081858  0.090670  0.052817
  0C   2s        -0.000796 -0.000681 -0.009562 -0.165196 -0.183094 -0.110915
  0C   3s        -0.010370 -0.006988  0.005604 -0.015078 -0.016499 -0.049276
  0C   1pz        0.000001  0.000003 -0.000418 -0.003229 -0.003088  0.004232
  0C   1px       -0.000103 -0.000079 -0.004308 -0.044072 -0.045899  0.010944
  0C   1py        0.000187  0.000196  0.000693  0.025687  0.030803  0.057058
  0C   2pz       -0.000214 -0.000438 -0.000210 -0.000708 -0.000066  0.000357
  0C   2px       -0.002114 -0.002402 -0.001685 -0.006430 -0.005927 -0.006346
  0C   2py       -0.002210 -0.005001 -0.009604  0.002647  0.007750  0.018360
  0C   1dz2      -0.000215 -0.000217  0.000538  0.006529  0.007118  0.003186
  0C   1dxz       0.000057  0.000035 -0.000105 -0.001222 -0.001227  0.000109
  0C   1dyz       0.000045  0.000027 -0.000034 -0.000772 -0.000814 -0.000433
  0C   1dx2y2     0.000092  0.000070 -0.000324  0.000461  0.000951  0.005684
  0C   1dxy       0.000017  0.000013 -0.000137 -0.000927 -0.000836  0.001555
  1C   1s         0.001612  0.001522  0.003510  0.080671  0.092512  0.103049
  1C   2s        -0.000997 -0.000794 -0.006703 -0.162381 -0.186648 -0.215927
  1C   3s         0.003169 -0.002069 -0.007071 -0.027420 -0.031154 -0.007042
  1C   1pz       -0.000023 -0.000013 -0.000346 -0.006216 -0.006882 -0.004623
  1C   1px       -0.000226 -0.000244 -0.002719 -0.043677 -0.049020 -0.035543
  1C   1py       -0.000198 -0.000108 -0.001406 -0.024718 -0.027033 -0.009629
  1C   2pz        0.000430 -0.000080 -0.000411 -0.001901 -0.001750  0.000728
  1C   2px        0.002615  0.001570  0.001131 -0.010627 -0.013526  0.002846
  1C   2py        0.001898 -0.001052 -0.007600 -0.007649 -0.005994  0.005125
  1C   1dz2      -0.000101 -0.000054  0.000436  0.006514  0.007317  0.005925
  1C   1dxz       0.000028 -0.000008 -0.000075 -0.001153 -0.001240 -0.000834
  1C   1dyz      -0.000015  0.000008 -0.000060 -0.000536 -0.000621 -0.000276
  1C   1dx2y2     0.000001 -0.000000 -0.000007  0.000653  0.000716  0.000963
  1C   1dxy      -0.000021  0.000005 -0.000035  0.000824  0.001116  0.003229
  2C   1s         0.000398 -0.001231  0.005325  0.079888  0.090557  0.076057
  2C   2s        -0.000637 -0.000470 -0.009667 -0.160551 -0.183120 -0.159449
  2C   3s        -0.016178 -0.004793  0.004882 -0.015474 -0.015986 -0.059404
  2C   1pz        0.000068 -0.000037 -0.000393 -0.002812 -0.002501  0.003161
  2C   1px       -0.000092  0.000184 -0.002494 -0.000352  0.001492  0.041846
  2C   1py       -0.000190 -0.000138 -0.004186 -0.049941 -0.055041 -0.028077
  2C   2pz       -0.001101  0.000177  0.000486  0.001121 -0.000803 -0.000878
  2C   2px       -0.005427 -0.001324  0.006460  0.001914  0.000654  0.006278
  2C   2py       -0.002783  0.000567 -0.000351 -0.009116 -0.007924 -0.016264
  2C   1dz2      -0.000131 -0.000232  0.000654  0.006410  0.007070  0.004518
  2C   1dxz       0.000005  0.000052 -0.000166 -0.001241 -0.001426 -0.000829
  2C   1dyz      -0.000010  0.000017 -0.000107 -0.000465 -0.000504  0.000197
  2C   1dx2y2    -0.000085 -0.000002 -0.000098 -0.000918 -0.001203 -0.002044
  2C   1dxy       0.000020  0.000057 -0.000496  0.000181  0.000558  0.004642
  3C   1s        -0.007009 -0.007738  0.019208  0.080359  0.082848 -0.013957
  3C   2s        -0.002694 -0.002589 -0.036437 -0.162883 -0.166185  0.029512
  3C   3s         0.032325  0.019268 -0.005855 -0.021785 -0.034350  0.055411
  3C   1pz       -0.000213 -0.000096 -0.000578  0.002729  0.004917  0.008111
  3C   1px        0.000188 -0.000294 -0.004257  0.041845  0.048019  0.039028
  3C   1py       -0.001327 -0.001832 -0.016820 -0.028091 -0.019609  0.061145
  3C   2pz       -0.000956 -0.000686  0.001865 -0.001348  0.002069  0.000521
[...]
 6 H  px              0.9       0.9       0.1       0.1       0.0       0.0
 6 H  py              0.2       0.0       0.0       0.1       0.6       0.5
 7 H  s               0.2       0.0       0.4       0.1       1.0       0.7
 7 H  px              0.0       0.1       0.3       0.2       0.5       0.3
 7 H  py              1.3       0.6       0.0       0.0       0.2       0.1
 8 H  s               0.0       0.0       0.8       0.1       1.0       0.7
 8 H  px              0.1       0.1       0.6       0.1       0.6       0.4
 8 H  py              0.6       0.7       0.2       0.0       0.2       0.1
 9 H  s               0.2       0.0       0.3       0.0       1.0       0.8
 9 H  px              1.1       0.8       0.0       0.0       0.0       0.0
 9 H  py              0.2       0.0       0.3       0.0       0.7       0.5
10 H  s               0.2       0.0       0.0       0.0       0.8       0.8
10 H  px              0.0       0.3       0.0       0.1       0.4       0.4
10 H  py              0.9       0.5       0.1       0.2       0.2       0.1
11 N  s               1.3       0.0       0.4       3.3       0.1       0.1
11 N  pz              0.1       0.0       0.3       0.2       0.0       0.0
11 N  px              0.3       0.1       2.8       1.8       0.1       0.3
11 N  py              0.1       0.0       0.1       0.1       0.0       0.0
11 N  dz2             1.6       0.0       0.9       4.6       0.0       0.8
11 N  dxz             1.1       0.3       8.6       2.4       0.0       0.7
11 N  dyz             0.4       0.0       1.0       0.0       0.0       0.0
11 N  dx2y2           1.7       1.8       0.6      20.4       0.0       1.9
11 N  dxy             0.0       1.9      17.8       0.9       0.8       3.2
12 N  s               1.3       0.0       0.4       3.3       0.1       0.1
12 N  pz              0.0       0.0       0.5       0.4       0.1       0.1
12 N  px              0.5       0.1       2.3       1.5       0.0       0.2
12 N  py              0.0       0.0       0.3       0.2       0.1       0.1
12 N  dz2             0.1       2.4       4.3       1.7       0.2       0.4
12 N  dxz             1.0       0.2       0.1      10.6       0.2       0.8
12 N  dyz             1.5       0.2       6.5       1.8       0.3       2.8
12 N  dx2y2           1.6       0.0      16.8       3.8       0.1       1.6
12 N  dxy             0.5       1.2       1.2      10.4       0.1       1.0
13 C  s               0.1       0.0       0.7       0.1       0.1       0.0
13 C  pz              0.3       0.3       0.5       0.0       0.0       0.2
13 C  px              0.5       0.5       0.0       0.2       0.0       0.0
13 C  py              0.0       0.0       0.4       0.1       0.0       0.2
13 C  dz2             0.4       2.8       0.4       1.4       0.2       0.8
13 C  dxz             0.2       1.8       0.2       2.4       1.9       1.4
13 C  dyz             0.2       0.1       1.2       0.9       1.6       2.9
13 C  dx2y2           0.0       0.0       0.4       0.1       1.4       1.9
13 C  dxy             0.5       2.3       0.2       2.0       0.0       0.0
14 C  pz              0.1       0.1       0.1       0.0       0.2       0.1
14 C  px              0.2       0.3       0.0       0.1       0.1       0.2
14 C  py              0.2       0.3       0.1       0.1       0.0       0.0
14 C  dz2             2.4       1.7       0.0       0.0       1.0       1.0
14 C  dxz             0.0       0.5       0.0       0.8       3.5       2.7
14 C  dyz             1.3       2.1       0.0       0.9       0.1       0.0
14 C  dx2y2           0.7       1.6       0.0       0.7       0.3       0.2
14 C  dxy             1.1       0.5       0.1       0.0       1.6       1.5
15 C  pz              0.5       0.6       0.0       0.1       0.0       0.0
15 C  px              0.2       0.0       0.1       0.0       0.3       0.2
15 C  py              0.1       0.2       0.0       0.1       0.1       0.1
15 C  dz2             0.9       0.1       0.8       0.2       2.8       2.1
15 C  dxz             4.0       3.2       0.0       0.3       0.0       0.1
15 C  dyz             0.4       0.8       0.5       0.4       1.2       0.8
15 C  dx2y2           0.5       0.8       0.4       0.3       1.0       0.6
15 C  dxy             2.0       0.8       0.7       0.0       2.2       1.7
16 C  pz              0.3       0.2       0.1       0.0       0.2       0.1
16 C  px              0.8       0.5       0.0       0.0       0.0       0.0
16 C  py              0.0       0.0       0.1       0.0       0.2       0.1
16 C  dz2             2.0       2.0       0.2       0.3       0.4       0.2
16 C  dxz             1.7       1.6       1.3       0.0       2.4       1.9
16 C  dyz             0.1       0.1       1.9       0.3       2.7       1.9
16 C  dx2y2           0.0       0.0       0.9       0.2       1.8       1.3
16 C  dxy             2.3       2.2       0.0       0.1       0.0       0.0
17 C  pz              0.1       0.1       0.0       0.0       0.2       0.2
17 C  px              0.4       0.3       0.1       0.1       0.1       0.1
17 C  py              0.2       0.3       0.0       0.1       0.0       0.0
17 C  dz2             2.7       1.3       0.3       0.2       1.2       0.9
17 C  dxz             0.0       0.7       1.2       0.0       3.8       3.1
17 C  dyz             2.4       2.0       0.1       0.1       0.1       0.1
17 C  dx2y2           1.2       1.5       0.2       0.1       0.3       0.3
17 C  dxy             1.1       0.5       0.4       0.2       1.6       1.2
18 C  s               0.1       0.0       0.0       0.1       0.0       0.0
18 C  pz              0.3       0.6       0.1       0.2       0.0       0.0
18 C  px              0.0       0.0       0.0       0.1       0.2       0.2
18 C  py              0.1       0.2       0.0       0.0       0.1       0.1
18 C  dz2             0.7       0.1       0.0       0.1       2.5       2.4
18 C  dxz             1.9       3.5       0.1       1.3       0.0       0.0
18 C  dyz             0.1       0.8       0.0       0.3       1.1       1.2
18 C  dx2y2           0.1       1.0       0.0       0.3       0.7       0.9
18 C  dxy             1.8       0.5       0.1       0.0       1.8       1.7
19 H  s               0.2       0.0       0.0       0.0       0.8       0.8
19 H  pz              0.6       0.5       0.1       0.2       0.0       0.0
19 H  px              0.3       0.0       0.0       0.0       0.4       0.4
19 H  py              0.0       0.2       0.0       0.0       0.1       0.2
20 H  s               0.1       0.0       0.0       0.1       0.8       0.7
20 H  pz              0.0       0.1       0.0       0.1       0.3       0.3
20 H  px              0.8       0.4       0.1       0.0       0.2       0.2
20 H  py              0.3       0.4       0.0       0.1       0.0       0.0
21 H  s               0.2       0.0       0.4       0.1       1.0       0.7
21 H  pz              0.8       0.5       0.0       0.1       0.0       0.0
21 H  px              0.5       0.1       0.2       0.0       0.5       0.4
21 H  py              0.0       0.1       0.1       0.1       0.2       0.1
22 H  s               0.0       0.0       0.8       0.1       1.0       0.7
22 H  pz              0.3       0.3       0.4       0.0       0.4       0.3
22 H  px              0.4       0.5       0.1       0.1       0.1       0.0
22 H  py              0.0       0.0       0.3       0.0       0.3       0.2
23 H  s               0.2       0.0       0.3       0.0       1.0       0.8
23 H  pz              0.0       0.2       0.3       0.0       0.4       0.3
23 H  px              0.9       0.3       0.0       0.0       0.2       0.2
23 H  py              0.4       0.4       0.0       0.0       0.0       0.0



                      *****************************
                      * MAYER POPULATION ANALYSIS *
                      *****************************

  NA   - Mulliken gross atomic population
  ZA   - Total nuclear charge
  QA   - Mulliken gross atomic charge
  VA   - Mayer's total valence
  BVA  - Mayer's bonded valence
  FA   - Mayer's free valence

  ATOM       NA         ZA         QA         VA         BVA        FA
  0 C      5.9844     6.0000     0.0156     3.8244     3.8244     0.0000
  1 C      5.9588     6.0000     0.0412     3.8136     3.8136     0.0000
  2 C      5.9965     6.0000     0.0035     3.8528     3.8528     0.0000
  3 C      5.9555     6.0000     0.0445     3.8355     3.8355     0.0000
  4 C      5.9671     6.0000     0.0329     3.9576     3.9576    -0.0000
  5 C      5.9732     6.0000     0.0268     3.8346     3.8346    -0.0000
  6 H      1.0248     1.0000    -0.0248     0.9978     0.9978    -0.0000
  7 H      1.0153     1.0000    -0.0153     0.9782     0.9782    -0.0000
  8 H      1.0177     1.0000    -0.0177     0.9778     0.9778     0.0000
  9 H      1.0172     1.0000    -0.0172     0.9781     0.9781     0.0000
 10 H      1.0095     1.0000    -0.0095     0.9907     0.9907     0.0000
 11 N      7.0801     7.0000    -0.0801     2.9111     2.9111     0.0000
 12 N      7.0800     7.0000    -0.0800     2.9113     2.9113     0.0000
 13 C      5.9672     6.0000     0.0328     3.9576     3.9576    -0.0000
 14 C      5.9732     6.0000     0.0268     3.8351     3.8351     0.0000
 15 C      5.9846     6.0000     0.0154     3.8244     3.8244     0.0000
 16 C      5.9588     6.0000     0.0412     3.8138     3.8138     0.0000
 17 C      5.9963     6.0000     0.0037     3.8526     3.8526    -0.0000
 18 C      5.9557     6.0000     0.0443     3.8353     3.8353     0.0000
 19 H      1.0094     1.0000    -0.0094     0.9907     0.9907    -0.0000
 20 H      1.0248     1.0000    -0.0248     0.9978     0.9978    -0.0000
 21 H      1.0152     1.0000    -0.0152     0.9782     0.9782    -0.0000
 22 H      1.0176     1.0000    -0.0176     0.9778     0.9778    -0.0000
 23 H      1.0172     1.0000    -0.0172     0.9781     0.9781     0.0000

  Mayer bond orders larger than 0.100000
B(  0-C ,  1-C ) :   1.3786 B(  0-C ,  5-C ) :   1.3647 B(  0-C ,  7-H ) :   0.9841 
B(  1-C ,  2-C ) :   1.3621 B(  1-C ,  8-H ) :   0.9891 B(  2-C ,  3-C ) :   1.4005 
B(  2-C ,  9-H ) :   0.9836 B(  3-C ,  4-C ) :   1.3268 B(  3-C , 10-H ) :   0.9808 
B(  4-C ,  5-C ) :   1.3677 B(  4-C , 11-N ) :   1.0715 B(  5-C ,  6-H ) :   0.9937 
B( 11-N , 12-N ) :   1.6711 B( 12-N , 13-C ) :   1.0716 B( 13-C , 14-C ) :   1.3678 
B( 13-C , 18-C ) :   1.3268 B( 14-C , 15-C ) :   1.3647 B( 14-C , 20-H ) :   0.9939 
B( 15-C , 16-C ) :   1.3789 B( 15-C , 21-H ) :   0.9839 B( 16-C , 17-C ) :   1.3621 
B( 16-C , 22-H ) :   0.9889 B( 17-C , 18-C ) :   1.4003 B( 17-C , 23-H ) :   0.9838 
B( 18-C , 19-H ) :   0.9808 

-------
TIMINGS
-------

Total SCF time: 0 days 0 hours 2 min 9 sec 

Total time                  ....     129.964 sec
Sum of individual times     ....     129.550 sec  ( 99.7%)

Fock matrix formation       ....     123.434 sec  ( 95.0%)
  Split-RI-J                ....      10.084 sec  (  8.2% of F)
  Chain of spheres X        ....      98.283 sec  ( 79.6% of F)
  XC integration            ....      15.026 sec  ( 12.2% of F)
    Basis function eval.    ....       6.057 sec  ( 40.3% of XC)
    Density eval.           ....       4.090 sec  ( 27.2% of XC)
    XC-Functional eval.     ....       1.327 sec  (  8.8% of XC)
    XC-Potential eval.      ....       3.153 sec  ( 21.0% of XC)
Diagonalization             ....       0.074 sec  (  0.1%)
Density matrix formation    ....       0.010 sec  (  0.0%)
Population analysis         ....       0.499 sec  (  0.4%)
Initial guess               ....       0.937 sec  (  0.7%)
Orbital Transformation      ....       0.000 sec  (  0.0%)
Orbital Orthonormalization  ....       0.000 sec  (  0.0%)
DIIS solution               ....       0.027 sec  (  0.0%)
SOSCF solution              ....       0.043 sec  (  0.0%)
Grid generation             ....       4.527 sec  (  3.5%)

Maximum memory used throughout the entire SCF-calculation: 97.4 MB


-------------------------------------------------------------------------------
                          DFT DISPERSION CORRECTION                            
                                                                               
                              DFTD3 V3.1  Rev 1                                
                          USING Becke-Johnson damping                          
-------------------------------------------------------------------------------
The B3LYP functional is recognized
Active option DFTDOPT                   ...         4   

C6 coefficients used: 
	2 C6 for element 	 1
Z=1  CN=    0.911800  	 C6(AA)=    3.026700
Z=1  CN=    0.000000  	 C6(AA)=    7.591600
	5 C6 for element 	 6
Z=6  CN=    0.000000  	 C6(AA)=   49.113000
Z=6  CN=    0.986800  	 C6(AA)=   43.245200
Z=6  CN=    1.998500  	 C6(AA)=   29.360200
Z=6  CN=    2.998700  	 C6(AA)=   25.780900
Z=6  CN=    3.984400  	 C6(AA)=   18.206700
	4 C6 for element 	 7
Z=7  CN=    0.000000  	 C6(AA)=   25.268500
Z=7  CN=    0.994400  	 C6(AA)=   22.124100
Z=7  CN=    2.014300  	 C6(AA)=   19.676800
Z=7  CN=    2.990300  	 C6(AA)=   15.581700

  #           XYZ [au]              r0(AA) [Ang.]  CN      C6(AA)     C8(AA)    C10(AA) [au]
  1  -19.22020    4.43481   -0.20101  c   1.455   3.126      25.4      733.3    25981.6
  2  -19.26668    1.79978   -0.35141  c   1.455   3.127      25.4      733.2    25977.9
  3  -17.01725    0.42927   -0.17894  c   1.455   3.126      25.4      733.4    25982.8
  4  -14.71615    1.69108    0.12958  c   1.455   3.165      25.2      728.9    25823.7
  5  -14.64823    4.35264    0.24708  c   1.455   3.179      25.1      727.1    25759.4
  6  -16.92289    5.70331    0.10849  c   1.455   3.164      25.2      729.1    25830.3
  7  -16.91091    7.74612    0.22951  h   1.091   1.004       3.1       37.3      552.9
  8  -20.96504    5.49540   -0.31984  h   1.091   1.003       3.1       37.3      553.0
  9  -21.04630    0.81967   -0.58740  h   1.091   1.003       3.1       37.3      553.0
 10  -17.05699   -1.61349   -0.27463  h   1.091   1.003       3.1       37.3      553.0
 11  -13.00666    0.58317    0.29147  h   1.091   1.005       3.1       37.3      552.8
 12  -12.35743    5.72986    0.60692  n   1.311   2.119      19.5      429.8    11616.1
 13  -10.19241    5.11054   -0.14334  n   1.311   2.119      19.5      429.8    11616.1
 14   -9.60102    3.32945   -2.08032  c   1.455   3.179      25.1      727.1    25759.4
 15   -7.31101    2.00730   -1.92100  c   1.455   3.164      25.2      729.1    25830.3
 16   -6.62918    0.27350   -3.79491  c   1.455   3.126      25.4      733.3    25981.5
 17   -8.22167   -0.13744   -5.85968  c   1.455   3.127      25.4      733.2    25977.9
 18  -10.49163    1.19489   -6.05992  c   1.455   3.126      25.4      733.4    25982.8
 19  -11.18045    2.92947   -4.18931  c   1.455   3.165      25.2      728.9    25823.7
 20  -12.93157    3.96002   -4.40746  h   1.091   1.005       3.1       37.3      552.8
 21   -6.05814    2.31522   -0.33250  h   1.091   1.004       3.1       37.3      552.9
 22   -4.86344   -0.74824   -3.64785  h   1.091   1.003       3.1       37.3      553.0
 23   -7.69035   -1.47727   -7.31084  h   1.091   1.003       3.1       37.3      553.0
 24  -11.71466    0.89084   -7.67093  h   1.091   1.003       3.1       37.3      553.0

molecular C6(AA) [au] = 7511.539349 


            DFT-D V3
 parameters
 s6 scaling factor         :     1.0000 
 a1 scaling factor         :     0.3981 
 s8 scaling factor         :     1.9889 
 a2 scaling factor         :     4.4211 
 ad hoc parameters k1-k3   :    16.0000     1.3333    -4.0000 

 Edisp/kcal,au: -32.500050853479  -0.051792122239 
 E6   /kcal   : -15.100736228 
 E8   /kcal   : -17.399314625 
 % E8         :  53.536268924 

-------------------------   ----------------
Dispersion correction           -0.051792122
-------------------------   ----------------


-------------------------   --------------------
FINAL SINGLE POINT ENERGY      -572.016533321148
-------------------------   --------------------


                            ***************************************
                            *     ORCA property calculations      *
                            ***************************************

                                    ---------------------
                                    Active property flags
                                    ---------------------
   (+) Dipole Moment


------------------------------------------------------------------------------
                       ORCA ELECTRIC PROPERTIES CALCULATION
------------------------------------------------------------------------------

Dipole Moment Calculation                       ... on
Quadrupole Moment Calculation                   ... off
Polarizability Calculation                      ... off
GBWName                                         ... Z_azobenzene.gbw
Electron density                                ... Z_azobenzene.scfp
SHARK General Contraction Test:  Segmented basis detected
   -> Pre-screening matrix found on disk - Trying to read with NShells=114
   -> Passing Pre-screening matrix on to SHARK ...ok
   -> Leaving CheckPreScreeningMatrix
----------------------
SHARK INTEGRAL PACKAGE
----------------------

Number of atoms                             ...     24
Number of basis functions                   ...    246
Number of shells                            ...    114
Maximum angular momentum                    ...      2
Integral batch strategy                     ... SHARK/LIBINT Hybrid
RI-J (if used) integral strategy            ... SPLIT-RIJ (Revised 2003 algorithm where possible)
Printlevel                                  ...      2
Contraction scheme used                     ... SEGMENTED contraction
Coulomb Range Separation                    ... NOT USED
Exchange Range Separation                   ... NOT USED
Finite Nucleus Model                        ... NOT USED
Auxiliary Coulomb fitting basis             ... AVAILABLE
   # of basis functions in Aux-J            ...    796
   # of shells in Aux-J                     ...    260
   Maximum angular momentum in Aux-J        ...      4
Auxiliary J/K fitting basis                 ... NOT available
Auxiliary Correlation fitting basis         ... NOT available
Auxiliary 'external' fitting basis          ... NOT available
Integral threshold                          ...     1.000000e-10
Primitive cut-off                           ...     1.000000e-11
Primitive pair pre-selection threshold      ...     1.000000e-11

The origin for moment calculation is the CENTER OF MASS  = (-12.696220,  2.778755 -1.689173)

-------------
DIPOLE MOMENT
-------------
                                X             Y             Z
Electronic contribution:      2.08535       3.87552       2.81841
Nuclear contribution   :     -2.61396      -4.85794      -3.53292
                        -----------------------------------------
Total Dipole Moment    :     -0.52861      -0.98241      -0.71451
                        -----------------------------------------
Magnitude (a.u.)       :      1.32479
Magnitude (Debye)      :      3.36736



--------------------
Rotational spectrum 
--------------------
 
Rotational constants in cm-1:     0.050843     0.014920     0.012949 
Rotational constants in MHz :  1524.224874   447.296780   388.199989 

 Dipole components along the rotational axes: 
x,y,z [a.u.] :     0.000025     1.324794     0.000038 
x,y,z [Debye]:     0.000065     3.367358     0.000097 

 

Timings for individual modules:

Sum of individual times         ...      131.772 sec (=   2.196 min)
GTO integral calculation        ...        1.200 sec (=   0.020 min)   0.9 %
SCF iterations                  ...      130.572 sec (=   2.176 min)  99.1 %
                             ****ORCA TERMINATED NORMALLY****
TOTAL RUN TIME: 0 days 0 hours 2 minutes 14 seconds 64 msec
