[Molden Format]
[Title]
 Molden file created by orca_2mkl for BaseName=Z_azobenzene

[Atoms] AU
C    1   6        -19.2201966382         4.4348092911        -0.2010101689 
C    2   6        -19.2666839011         1.7997751699        -0.3514134719 
C    3   6        -17.0172483976         0.4292701886        -0.1789381676 
C    4   6        -14.7161477816         1.6910781227         0.1295785210 
C    5   6        -14.6482310244         4.3526439988         0.2470816920 
C    6   6        -16.9228943718         5.7033068557         0.1084891773 
H    7   1        -16.9109135081         7.7461197038         0.2295072390 
H    8   1        -20.9650374695         5.4953991865        -0.3198361482 
H    9   1        -21.0462956932         0.8196687106        -0.5874024715 
H   10   1        -17.0569893382        -1.6134859677        -0.2746338990 
H   11   1        -13.0066637263         0.5831694849         0.2914713589 
N   12   7        -12.3574294158         5.7298575079         0.6069233424 
N   13   7        -10.1924079787         5.1105375621        -0.1433357273 
C   14   6         -9.6010181850         3.3294517836        -2.0803239118 
C   15   6         -7.3110102614         2.0073048940        -1.9210011014 
C   16   6         -6.6291781751         0.2735000634        -3.7949102276 
C   17   6         -8.2216692854        -0.1374397817        -5.8596816933 
C   18   6        -10.4916272147         1.1948927317        -6.0599170745 
C   19   6        -11.1804512878         2.9294723501        -4.1893149690 
H   20   1        -12.9315660098         3.9600155999        -4.4074649539 
H   21   1         -6.0581407319         2.3152168702        -0.3324973133 
H   22   1         -4.8634369728        -0.7482370627        -3.6478517399 
H   23   1         -7.6903538856        -1.4772745079        -7.3108401861 
H   24   1        -11.7146579686         0.8908357968        -7.6709275009 
[GTO]
  1 0
s   5 1.0 
     1238.4016938000         0.8208956682
      186.2900499200         1.4766449896
       42.2511763460         2.1526124058
       11.6765579320         2.1081722461
        3.5930506482         0.8290999933
s   1 1.0 
        0.4024514736         0.3601183351
s   1 1.0 
        0.1309018267         0.1551027052
p   3 1.0 
        9.4680970621         1.3467645142
        2.0103545142         1.0678070931
        0.5477100471         0.5108735714
p   1 1.0 
        0.1526861379         0.1360471976
d   1 1.0 
        0.8000000000         1.9292013661

  2 0
s   5 1.0 
     1238.4016938000         0.8208956682
      186.2900499200         1.4766449896
       42.2511763460         2.1526124058
       11.6765579320         2.1081722461
        3.5930506482         0.8290999933
s   1 1.0 
        0.4024514736         0.3601183351
s   1 1.0 
        0.1309018267         0.1551027052
p   3 1.0 
        9.4680970621         1.3467645142
        2.0103545142         1.0678070931
        0.5477100471         0.5108735714
p   1 1.0 
        0.1526861379         0.1360471976
d   1 1.0 
        0.8000000000         1.9292013661

  3 0
s   5 1.0 
     1238.4016938000         0.8208956682
      186.2900499200         1.4766449896
       42.2511763460         2.1526124058
       11.6765579320         2.1081722461
        3.5930506482         0.8290999933
s   1 1.0 
        0.4024514736         0.3601183351
s   1 1.0 
        0.1309018267         0.1551027052
p   3 1.0 
        9.4680970621         1.3467645142
        2.0103545142         1.0678070931
        0.5477100471         0.5108735714
p   1 1.0 
        0.1526861379         0.1360471976
d   1 1.0 
        0.8000000000         1.9292013661

  4 0
s   5 1.0 
     1238.4016938000         0.8208956682
      186.2900499200         1.4766449896
       42.2511763460         2.1526124058
       11.6765579320         2.1081722461
        3.5930506482         0.8290999933
s   1 1.0 
        0.4024514736         0.3601183351
s   1 1.0 
        0.1309018267         0.1551027052
p   3 1.0 
        9.4680970621         1.3467645142
        2.0103545142         1.0678070931
        0.5477100471         0.5108735714
p   1 1.0 
        0.1526861379         0.1360471976
d   1 1.0 
        0.8000000000         1.9292013661

  5 0
s   5 1.0 
     1238.4016938000         0.8208956682
      186.2900499200         1.4766449896
       42.2511763460         2.1526124058
       11.6765579320         2.1081722461
        3.5930506482         0.8290999933
s   1 1.0 
        0.4024514736         0.3601183351
s   1 1.0 
        0.1309018267         0.1551027052
p   3 1.0 
        9.4680970621         1.3467645142
        2.0103545142         1.0678070931
        0.5477100471         0.5108735714
p   1 1.0 
        0.1526861379         0.1360471976
d   1 1.0 
        0.8000000000         1.9292013661

  6 0
s   5 1.0 
     1238.4016938000         0.8208956682
      186.2900499200         1.4766449896
       42.2511763460         2.1526124058
       11.6765579320         2.1081722461
        3.5930506482         0.8290999933
s   1 1.0 
        0.4024514736         0.3601183351
s   1 1.0 
        0.1309018267         0.1551027052
p   3 1.0 
        9.4680970621         1.3467645142
        2.0103545142         1.0678070931
        0.5477100471         0.5108735714
p   1 1.0 
        0.1526861379         0.1360471976
d   1 1.0 
        0.8000000000         1.9292013661

  7 0
s   3 1.0 
       13.0107010000         0.1634903809
        1.9622572000         0.2773515510
        0.4445379600         0.3157501452
s   1 1.0 
        0.1219496200         0.1470772262
p   1 1.0 
        0.8000000000         1.0784563492

  8 0
s   3 1.0 
       13.0107010000         0.1634903809
        1.9622572000         0.2773515510
        0.4445379600         0.3157501452
s   1 1.0 
        0.1219496200         0.1470772262
p   1 1.0 
        0.8000000000         1.0784563492

  9 0
s   3 1.0 
       13.0107010000         0.1634903809
        1.9622572000         0.2773515510
        0.4445379600         0.3157501452
s   1 1.0 
        0.1219496200         0.1470772262
p   1 1.0 
        0.8000000000         1.0784563492

 10 0
s   3 1.0 
       13.0107010000         0.1634903809
        1.9622572000         0.2773515510
        0.4445379600         0.3157501452
s   1 1.0 
        0.1219496200         0.1470772262
p   1 1.0 
        0.8000000000         1.0784563492

 11 0
s   3 1.0 
       13.0107010000         0.1634903809
        1.9622572000         0.2773515510
        0.4445379600         0.3157501452
s   1 1.0 
        0.1219496200         0.1470772262
p   1 1.0 
        0.8000000000         1.0784563492

 12 0
s   5 1.0 
     1712.8415853000        -1.0337585405
      257.6481267700        -1.8620740805
       58.4582458530        -2.7290401880
       16.1983679050        -2.6956734544
        5.0052600809        -1.0640914367
s   1 1.0 
        0.5873185657         0.4781513534
s   1 1.0 
        0.1876459225         0.2031956662
p   3 1.0 
       13.5714702330        -2.1850243557
        2.9257372874        -1.7466999024
        0.7992775075        -0.8114650516
p   1 1.0 
        0.2195434803         0.2142105067
d   1 1.0 
        1.0000000000         2.8508218814

 13 0
s   5 1.0 
     1712.8415853000        -1.0337585405
      257.6481267700        -1.8620740805
       58.4582458530        -2.7290401880
       16.1983679050        -2.6956734544
        5.0052600809        -1.0640914367
s   1 1.0 
        0.5873185657         0.4781513534
s   1 1.0 
        0.1876459225         0.2031956662
p   3 1.0 
       13.5714702330        -2.1850243557
        2.9257372874        -1.7466999024
        0.7992775075        -0.8114650516
p   1 1.0 
        0.2195434803         0.2142105067
d   1 1.0 
        1.0000000000         2.8508218814

 14 0
s   5 1.0 
     1238.4016938000         0.8208956682
      186.2900499200         1.4766449896
       42.2511763460         2.1526124058
       11.6765579320         2.1081722461
        3.5930506482         0.8290999933
s   1 1.0 
        0.4024514736         0.3601183351
s   1 1.0 
        0.1309018267         0.1551027052
p   3 1.0 
        9.4680970621         1.3467645142
        2.0103545142         1.0678070931
        0.5477100471         0.5108735714
p   1 1.0 
        0.1526861379         0.1360471976
d   1 1.0 
        0.8000000000         1.9292013661

 15 0
s   5 1.0 
     1238.4016938000         0.8208956682
      186.2900499200         1.4766449896
       42.2511763460         2.1526124058
       11.6765579320         2.1081722461
        3.5930506482         0.8290999933
s   1 1.0 
        0.4024514736         0.3601183351
s   1 1.0 
        0.1309018267         0.1551027052
p   3 1.0 
        9.4680970621         1.3467645142
        2.0103545142         1.0678070931
        0.5477100471         0.5108735714
p   1 1.0 
        0.1526861379         0.1360471976
d   1 1.0 
        0.8000000000         1.9292013661

 16 0
s   5 1.0 
     1238.4016938000         0.8208956682
      186.2900499200         1.4766449896
       42.2511763460         2.1526124058
       11.6765579320         2.1081722461
        3.5930506482         0.8290999933
s   1 1.0 
        0.4024514736         0.3601183351
s   1 1.0 
        0.1309018267         0.1551027052
p   3 1.0 
        9.4680970621         1.3467645142
        2.0103545142         1.0678070931
        0.5477100471         0.5108735714
p   1 1.0 
        0.1526861379         0.1360471976
d   1 1.0 
        0.8000000000         1.9292013661

 17 0
s   5 1.0 
     1238.4016938000         0.8208956682
      186.2900499200         1.4766449896
       42.2511763460         2.1526124058
       11.6765579320         2.1081722461
        3.5930506482         0.8290999933
s   1 1.0 
        0.4024514736         0.3601183351
s   1 1.0 
        0.1309018267         0.1551027052
p   3 1.0 
        9.4680970621         1.3467645142
        2.0103545142         1.0678070931
        0.5477100471         0.5108735714
p   1 1.0 
        0.1526861379         0.1360471976
d   1 1.0 
        0.8000000000         1.9292013661

 18 0
s   5 1.0 
     1238.4016938000         0.8208956682
      186.2900499200         1.4766449896
       42.2511763460         2.1526124058
       11.6765579320         2.1081722461
        3.5930506482         0.8290999933
s   1 1.0 
        0.4024514736         0.3601183351
s   1 1.0 
        0.1309018267         0.1551027052
p   3 1.0 
        9.4680970621         1.3467645142
        2.0103545142         1.0678070931
        0.5477100471         0.5108735714
p   1 1.0 
        0.1526861379         0.1360471976
d   1 1.0 
        0.8000000000         1.9292013661

 19 0
s   5 1.0 
     1238.4016938000         0.8208956682
      186.2900499200         1.4766449896
       42.2511763460         2.1526124058
       11.6765579320         2.1081722461
        3.5930506482         0.8290999933
s   1 1.0 
        0.4024514736         0.3601183351
s   1 1.0 
        0.1309018267         0.1551027052
p   3 1.0 
        9.4680970621         1.3467645142
        2.0103545142         1.0678070931
        0.5477100471         0.5108735714
p   1 1.0 
        0.1526861379         0.1360471976
d   1 1.0 
        0.8000000000         1.9292013661

 20 0
s   3 1.0 
       13.0107010000         0.1634903809
        1.9622572000         0.2773515510
        0.4445379600         0.3157501452
s   1 1.0 
        0.1219496200         0.1470772262
p   1 1.0 
        0.8000000000         1.0784563492

 21 0
s   3 1.0 
       13.0107010000         0.1634903809
        1.9622572000         0.2773515510
        0.4445379600         0.3157501452
s   1 1.0 
        0.1219496200         0.1470772262
p   1 1.0 
        0.8000000000         1.0784563492

 22 0
s   3 1.0 
       13.0107010000         0.1634903809
        1.9622572000         0.2773515510
        0.4445379600         0.3157501452
s   1 1.0 
        0.1219496200         0.1470772262
p   1 1.0 
        0.8000000000         1.0784563492

 23 0
s   3 1.0 
       13.0107010000         0.1634903809
        1.9622572000         0.2773515510
        0.4445379600         0.3157501452
s   1 1.0 
        0.1219496200         0.1470772262
p   1 1.0 
        0.8000000000         1.0784563492

 24 0
s   3 1.0 
       13.0107010000         0.1634903809
        1.9622572000         0.2773515510
        0.4445379600         0.3157501452
s   1 1.0 
        0.1219496200         0.1470772262
p   1 1.0 
        0.8000000000         1.0784563492

[5D]
[7F]
[9G]
[MO]
 Sym=     1a
 Ene= -1.43730071759876E+01
 Spin= Alpha
 Occup= 2.000000
  1       0.000005169269
  2      -0.000314047302
  3       0.002824101585
  4      -0.000129186753
  5      -0.000035050573
  6      -0.000016850576
  7       0.002665959558
  8       0.000946861779
  9       0.000277905361
 10      -0.000099735556
 11       0.000017359902
 12       0.000018834568
 13      -0.000037899920
 14       0.000026965183
 15       0.000013585881
 16      -0.000114122236
 17      -0.004167593839
 18      -0.000071174980
 19      -0.000012574013
 20      -0.000018848169
 21      -0.002786398974
 22       0.000721215412
 23      -0.000125887482
 24      -0.000008010402
 25       0.000007377928
 26      -0.000009622736
 27      -0.000017952753
 28      -0.000013918272
 29       0.000023686336
 30      -0.000759648303
 31       0.004582658658
 32      -0.000016410503
 33      -0.000138882817
 34       0.000035995466
 35      -0.001504331115
 36       0.003655459003
 37      -0.000281404229
 38      -0.000154434035
 39       0.000033817558
 40       0.000009399636
 41       0.000088840559
 42       0.000049057551
 43       0.000024351706
 44       0.000009889736
 45      -0.008539673353
 46      -0.000162158523
 47      -0.000159602858
 48      -0.000066770396
 49      -0.002480831781
 50      -0.003993559687
 51      -0.000014967962
 52      -0.000012316280
 53       0.000030561252
 54       0.000001048993
 55       0.000107580577
 56      -0.000516813743
 57       0.000198893297
 58      -0.000612494439
 59       0.012212248010
 60      -0.001117839534
 61      -0.000283495002
 62      -0.000095889956
 63       0.014463492538
 64      -0.002171217652
 65       0.000962103361
 66       0.000189190608
 67      -0.000208199903
 68      -0.000128389261
 69      -0.000376937709
 70      -0.000742147656
 71      -0.000057992613
 72       0.000701969910
 73       0.002547547909
 74       0.000023475562
 75      -0.000072898667
 76       0.000018238164
 77       0.003787065499
 78      -0.002423182112
 79       0.000317227499
 80      -0.000117026062
 81       0.000014791181
 82       0.000021806848
 83      -0.000228067146
 84      -0.000024172987
 85       0.000078046527
 86       0.000980078089
 87      -0.000172199498
 88       0.000036032765
 89      -0.000020850360
 90       0.000187342187
 91       0.000483357587
 92      -0.000025260500
 93      -0.000097577564
 94      -0.000004328677
 95      -0.000135289469
 96      -0.000099674956
 97       0.000087850299
 98      -0.000048181888
 99      -0.000006543716
100       0.000368490400
101       0.000893004998
102      -0.000012282373
103       0.000019473944
104       0.000033143851
105      -0.000116970248
106       0.000751866788
107      -0.000022098762
108      -0.000186597193
109       0.000053622322
110      -0.701858165220
111       0.029965104459
112      -0.024020894742
113       0.000915720515
114       0.001770123305
115       0.000915955726
116       0.003681900756
117       0.005996492956
118       0.001469727019
119       0.000324406155
120       0.000260077925
121      -0.000247078173
122      -0.000342651746
123       0.000283867587
124      -0.696890111164
125       0.029720849487
126      -0.023732487875
127       0.000796774242
128       0.001445842589
129       0.001420747083
130       0.001672016685
131       0.003882805782
132       0.005699436625
133       0.000294958569
134       0.000187193581
135      -0.000226117410
136      -0.000473946240
137       0.000237863635
138       0.000198198424
139      -0.000618393145
140       0.012108710450
141       0.000554293262
142      -0.000766737673
143      -0.000665264788
144      -0.010727839398
145       0.009035173401
146       0.003965605549
147      -0.000197474480
148       0.000335141233
149      -0.000651031440
150       0.000445774142
151       0.000074096311
152      -0.000058125584
153       0.000700586533
154       0.002605433490
155      -0.000053399610
156       0.000022438975
157      -0.000054512421
158      -0.003876556431
159       0.002259057199
160      -0.000432159323
161       0.000084935175
162       0.000224774157
163       0.000030428870
164       0.000075179211
165       0.000034429087
166       0.000004936636
167      -0.000307212698
168       0.002796032900
169       0.000059280015
170      -0.000092568361
171      -0.000077062610
172      -0.001119777700
173       0.001874586750
174       0.001780401759
175       0.000037708812
176       0.000062122767
177       0.000076529090
178       0.000021313099
179      -0.000029182505
180       0.000013391026
181      -0.000111253526
182      -0.004156961001
183       0.000032906924
184      -0.000057298884
185      -0.000031186410
186       0.002267879532
187      -0.001674721450
188      -0.000572237568
189       0.000003999288
190       0.000022411868
191      -0.000010668574
192       0.000003848935
193      -0.000007218771
194       0.000023532089
195      -0.000756529678
196       0.004597436358
197      -0.000054931713
198       0.000005871630
199      -0.000132373120
200       0.003061748733
201      -0.000746553045
202       0.002399105996
203       0.000015681858
204      -0.000017102809
205       0.000138940206
206       0.000003674771
207      -0.000123441020
208       0.000024604217
209       0.000009970573
210      -0.008599381001
211      -0.000012065083
212      -0.000166121252
213      -0.000168966566
214      -0.000718098741
215      -0.001857312992
216      -0.004268565754
217      -0.000357078432
218       0.000084636093
219      -0.000237856649
220       0.000206877385
221      -0.000208953383
222      -0.000119187851
223       0.000733060545
224      -0.000070704419
225       0.000011175402
226      -0.000181446718
227       0.000078083134
228       0.000965965440
229       0.000128279576
230      -0.000114106468
231      -0.000036249639
232       0.000184449738
233       0.000476330219
234      -0.000041546264
235      -0.000027647942
236      -0.000086327172
237      -0.000135656533
238      -0.000102987410
239      -0.000091086539
240       0.000041526100
241       0.000001809770
242       0.000367268253
243       0.000889830749
244       0.000034093352
245       0.000020954596
246      -0.000004478989
 Sym=     1a
 Ene= -1.43728841290811E+01
 Spin= Alpha
 Occup= 2.000000
  1      -0.000018003424
  2       0.000737071734
  3      -0.005189707989
  4       0.000127982105
  5      -0.000056161648
  6       0.000027653543
  7      -0.003323612902
  8       0.001307482441
  9      -0.000445442594
 10       0.000169569684
 11      -0.000048182907
 12      -0.000024091756
 13      -0.000002501135
 14      -0.000062577055
 15      -0.000015177893
 16       0.000156607208
 17       0.003559154778
 18       0.000054478700
 19       0.000086128094
 20       0.000002827261
 21       0.001356242997
 22       0.001032712086
 23       0.000361407247
 24       0.000024418389
 25       0.000001065045
 26      -0.000003539646
 27      -0.000001437907
 28       0.000026935925
 29      -0.000003695406
 30       0.000321665819
 31      -0.001780579876
 32       0.000051666383
 33       0.000088933950
 34       0.000017126364
 35      -0.000327334745
 36      -0.001338558302
 37      -0.000416294998
 38       0.000104806435
 39      -0.000052587196
 40      -0.000027439241
 41      -0.000048830391
 42       0.000016954965
 43       0.000040381971
 44      -0.000257229119
 45      -0.003719596318
 46       0.000084044780
 47       0.000015552080
 48      -0.000134079602
 49       0.001821945170
 50      -0.003705458566
 51       0.000741868277
 52       0.000225577117
 53      -0.000014618436
 54       0.000065833116
 55      -0.000020425215
 56       0.000334773216
 57      -0.000094021360
 58      -0.000974806171
 59      -0.014033427802
 60       0.000156111455
 61       0.000476684709
 62       0.000057401496
 63      -0.010992967740
 64      -0.012457261414
 65      -0.001619730548
 66      -0.000224202561
 67       0.000193682526
 68       0.000323726496
 69      -0.000003548691
 70       0.000827102362
 71      -0.000007925055
 72      -0.000165441707
 73       0.007681719955
 74       0.000347689496
 75       0.000034296485
 76      -0.000052257455
 77       0.001267338303
 78       0.000741146055
 79       0.000367963102
 80       0.000039155071
 81       0.000006033399
 82      -0.000015750573
 83       0.000422114501
 84       0.000006683004
 85       0.000015500511
 86      -0.001662250485
 87       0.000172657135
 88      -0.000068134207
 89      -0.000018027698
 90      -0.000334016903
 91      -0.000778533392
 92       0.000037599600
 93       0.000078275213
 94       0.000027847853
 95       0.000097905540
 96      -0.000006557072
 97      -0.000040024053
 98      -0.000042802304
 99      -0.000022540011
100      -0.000182295642
101      -0.000408201566
102       0.000013239945
103      -0.000030830983
104       0.000029751872
105      -0.000086777039
106      -0.001867522442
107      -0.000112976990
108       0.000108229595
109       0.000063829201
110       0.696198902003
111      -0.033738764852
112       0.037395371159
113       0.001283015727
114      -0.002346231137
115      -0.001703729282
116      -0.008254658539
117      -0.007491909328
118      -0.003861920695
119       0.000963815658
120       0.001099685172
121      -0.000121040693
122      -0.001879416998
123       0.000872379675
124      -0.701172109364
125       0.033947877772
126      -0.037549997374
127       0.003003346156
128       0.000847884991
129       0.000620926857
130       0.000484092311
131       0.008746268374
132       0.007963406060
133      -0.000755521374
134      -0.001390734867
135       0.000402259490
136       0.001430550735
137      -0.001306727667
138       0.000095333445
139       0.000970456506
140       0.014146131859
141      -0.000197008737
142      -0.000191847849
143      -0.000430636707
144       0.000515217701
145       0.009094330858
146       0.014038501971
147      -0.000301532342
148       0.000047854818
149      -0.000774065656
150       0.000389424757
151      -0.000211913122
152       0.000007357172
153       0.000171820414
154      -0.007674689654
155       0.000238614470
156      -0.000167148632
157      -0.000199034051
158       0.000255888097
159      -0.001115231379
160      -0.000993437666
161       0.000165495186
162       0.000337969808
163      -0.000045486971
164       0.000073960083
165       0.000180522513
166       0.000017995503
167      -0.000738581774
168       0.005203260200
169       0.000109020969
170      -0.000092456485
171       0.000000399662
172      -0.002855574753
173       0.002197119402
174       0.000201960687
175       0.000047428539
176       0.000058273051
177       0.000149976504
178       0.000005309103
179      -0.000086674027
180       0.000015159601
181      -0.000156188319
182      -0.003591781113
183      -0.000015228657
184      -0.000042584819
185      -0.000090548906
186       0.000169520166
187      -0.001206789301
188      -0.001266619981
189      -0.000012609068
190       0.000013895623
191       0.000002737654
192       0.000023164612
193      -0.000020621919
194       0.000003785568
195      -0.000325603901
196       0.001811209636
197      -0.000024699686
198      -0.000053300924
199      -0.000086445673
200       0.000768474223
201       0.000656673388
202       0.001051340378
203      -0.000036267662
204       0.000028197586
205       0.000082714117
206       0.000008109425
207      -0.000091085208
208      -0.000040564285
209       0.000261347985
210       0.003653077286
211       0.000107016709
212       0.000055665150
213      -0.000105453083
214       0.003096950993
215      -0.001313899608
216       0.002454849525
217      -0.000123275588
218       0.000152142269
219      -0.000078197454
220       0.000219765793
221      -0.000278181756
222       0.000087235779
223       0.001861322801
224      -0.000169385919
225       0.000006535904
226      -0.000011959159
227      -0.000014273487
228       0.001667668551
229       0.000165972034
230      -0.000080872075
231      -0.000026723163
232       0.000334524554
233       0.000779959112
234      -0.000032162592
235      -0.000052414557
236      -0.000067505573
237      -0.000099291751
238       0.000004730584
239       0.000007325837
240       0.000046143071
241       0.000042023614
242       0.000183796789
243       0.000412446442
244       0.000014249951
245      -0.000028744960
246       0.000030969021
 Sym=     1a
 Ene= -1.02266483911633E+01
 Spin= Alpha
 Occup= 2.000000
  1      -0.000059239526
  2       0.000778614517
  3       0.009398656272
  4       0.000110684472
  5      -0.000164082187
  6       0.000001334803
  7       0.001945209217
  8       0.002249631680
  9       0.000203277525
 10       0.000196381022
 11      -0.000052627892
 12      -0.000040815645
 13      -0.000089927796
 14      -0.000007866573
 15       0.000465350179
 16       0.001030165850
 17      -0.002696600711
 18       0.000210067418
 19       0.000184111288
 20       0.000020679299
 21      -0.002438969850
 22      -0.001658759383
 23      -0.000395902971
 24       0.000094414235
 25      -0.000026087522
 26       0.000015212952
 27      -0.000000821558
 28       0.000020377817
 29       0.000047142325
 30       0.000652911472
 31       0.014688021189
 32       0.000104881517
 33       0.000183907671
 34      -0.000057836885
 35       0.004965392282
 36       0.002463712281
 37       0.001027603017
 38       0.000116712320
 39       0.000001201536
 40       0.000011062071
 41       0.000088170447
 42      -0.000016044510
 43      -0.005008068876
 44       0.001873579180
 45      -0.029742234527
 46      -0.000167265075
 47       0.001183318110
 48       0.000215753028
 49       0.010426525291
 50      -0.002640803614
 51       0.000807269124
 52      -0.000519184143
 53      -0.000024544675
 54       0.000111758911
 55      -0.001023854381
 56       0.000089865611
 57      -0.697645397079
 58      -0.036188304931
 59       0.026541667274
 60      -0.000281025773
 61       0.000171586767
 62       0.000213148567
 63      -0.019155316432
 64      -0.015469155916
 65      -0.003759952300
 66       0.001536846276
 67      -0.000373905646
 68      -0.000113783164
 69      -0.000279103682
 70      -0.000340921049
 71      -0.004860444345
 72       0.002263888987
 73      -0.018267966892
 74       0.001472652321
 75      -0.000690664808
 76       0.000049705895
 77       0.002421810377
 78       0.007896338061
 79       0.001283414973
 80      -0.000639151345
 81       0.000170264857
 82      -0.000076673167
 83       0.000655386969
 84      -0.000678928936
 85      -0.000474353093
 86      -0.000747844891
 87      -0.000205157699
 88       0.000139463348
 89      -0.000072524057
 90      -0.000395001017
 91      -0.001117478917
 92      -0.000075217673
 93      -0.000095689892
 94      -0.000002661936
 95      -0.000394697166
 96      -0.000762390859
 97      -0.000006502921
 98      -0.000010334181
 99       0.000003053454
100      -0.000250645862
101      -0.001165508733
102      -0.000208165353
103      -0.000037617168
104      -0.000073707178
105      -0.000696099696
106       0.001463418721
107      -0.000017561086
108      -0.000208711324
109      -0.000183842805
110       0.000015234783
111      -0.002079870288
112       0.015433036521
113       0.000172234428
114       0.000136699608
115      -0.000167663134
116      -0.010996086464
117      -0.006520126080
118      -0.003078171082
119      -0.000796155092
120       0.000188414049
121       0.000537093188
122       0.000544708123
123       0.001150912614
124      -0.000015511308
125       0.002080440433
126      -0.015456537711
127       0.000109753237
128       0.000017682237
129      -0.000254823465
130      -0.002316866172
131       0.009631968609
132       0.008669412786
133      -0.000291972776
134       0.000364541261
135      -0.001493927972
136       0.000332400506
137       0.000180591148
138       0.699431208870
139       0.036276826731
140      -0.026580725552
141      -0.000384541665
142      -0.000022000281
143       0.000070585516
144      -0.002266649225
145       0.015903004052
146       0.019083556015
147       0.000277235382
148       0.000353232476
149       0.001223384502
150       0.000149670273
151      -0.001001345202
152       0.004876044726
153      -0.002268384525
154       0.018298552271
155       0.001392786363
156      -0.000844971712
157      -0.000062733883
158      -0.003555019904
159      -0.003269532399
160      -0.006836630374
161       0.000521760141
162       0.000033884218
163      -0.000105768209
164      -0.000348165357
165       0.000967790245
166       0.000070250171
167      -0.000775907635
168      -0.009401766141
169       0.000170929127
170      -0.000048704465
171       0.000084034308
172      -0.000101150862
173      -0.001557769420
174      -0.002580473892
175      -0.000025096170
176       0.000018605971
177       0.000162839478
178       0.000031349868
179      -0.000151859963
180      -0.000453672847
181      -0.001025996909
182       0.002687575508
183       0.000024935102
184      -0.000158264149
185      -0.000227534152
186      -0.000531223751
187       0.001928128902
188       0.002191569048
189       0.000010768718
190       0.000044049040
191       0.000038811432
192       0.000022889676
193      -0.000077950476
194      -0.000028626741
195      -0.000645571404
196      -0.014710113683
197      -0.000011203530
198      -0.000033673292