[Molden Format]
[Title]
 Molden file created by orca_2mkl for BaseName=Z_T_azobenzene

[Atoms] AU
C    1   6        -17.9168525237         7.8855814925        -0.5517811338 
C    2   6        -18.0318801534         6.3244787332        -2.6773072948 
C    3   6        -15.8685216753         5.0549796137        -3.4996027247 
C    4   6        -13.5901166702         5.3323158211        -2.1901925892 
C    5   6        -13.4659427659         6.8761464835        -0.0214294944 
C    6   6        -15.6416789502         8.1684545974         0.7620131662 
H    7   1        -15.5736110149         9.3891042964         2.4031080327 
H    8   1        -19.5898270700         8.8807112746         0.0761748605 
H    9   1        -19.7930671157         6.1097113581        -3.6948681261 
H   10   1        -15.9541073719         3.8621844780        -5.1589712429 
H   11   1        -11.9360960769         4.3549683619        -2.8865755668 
N   12   7        -11.1790339932         7.2607057518         1.3555761449 
N   13   7        -10.3781680576         5.9634087608         3.1747399050 
C   14   6        -11.5737032962         3.8111051806         4.2757510424 
C   15   6        -10.4310048003         2.6712790684         6.3764084074 
C   16   6        -11.5521415211         0.5838875809         7.5461488843 
C   17   6        -13.8406565610        -0.3696304318         6.6397039496 
C   18   6        -15.0176157917         0.7714995914         4.5707750864 
C   19   6        -13.9018269960         2.8586265173         3.3954032256 
H   20   1        -14.8693856738         3.7268044978         1.8186913285 
H   21   1         -8.6601613375         3.3981622258         7.1000034413 
H   22   1        -10.6480965386        -0.2914902562         9.1585388108 
H   23   1        -14.7085321853        -1.9832108858         7.5487945009 
H   24   1        -16.8012904950         0.0445408450         3.8825746230 
[GTO]
  1 0
s   5 1.0 
     1238.4016938000         0.8208956682
      186.2900499200         1.4766449896
       42.2511763460         2.1526124058
       11.6765579320         2.1081722461
        3.5930506482         0.8290999933
s   1 1.0 
        0.4024514736         0.3601183351
s   1 1.0 
        0.1309018267         0.1551027052
p   3 1.0 
        9.4680970621         1.3467645142
        2.0103545142         1.0678070931
        0.5477100471         0.5108735714
p   1 1.0 
        0.1526861379         0.1360471976
d   1 1.0 
        0.8000000000         1.9292013661

  2 0
s   5 1.0 
     1238.4016938000         0.8208956682
      186.2900499200         1.4766449896
       42.2511763460         2.1526124058
       11.6765579320         2.1081722461
        3.5930506482         0.8290999933
s   1 1.0 
        0.4024514736         0.3601183351
s   1 1.0 
        0.1309018267         0.1551027052
p   3 1.0 
        9.4680970621         1.3467645142
        2.0103545142         1.0678070931
        0.5477100471         0.5108735714
p   1 1.0 
        0.1526861379         0.1360471976
d   1 1.0 
        0.8000000000         1.9292013661

  3 0
s   5 1.0 
     1238.4016938000         0.8208956682
      186.2900499200         1.4766449896
       42.2511763460         2.1526124058
       11.6765579320         2.1081722461
        3.5930506482         0.8290999933
s   1 1.0 
        0.4024514736         0.3601183351
s   1 1.0 
        0.1309018267         0.1551027052
p   3 1.0 
        9.4680970621         1.3467645142
        2.0103545142         1.0678070931
        0.5477100471         0.5108735714
p   1 1.0 
        0.1526861379         0.1360471976
d   1 1.0 
        0.8000000000         1.9292013661

  4 0
s   5 1.0 
     1238.4016938000         0.8208956682
      186.2900499200         1.4766449896
       42.2511763460         2.1526124058
       11.6765579320         2.1081722461
        3.5930506482         0.8290999933
s   1 1.0 
        0.4024514736         0.3601183351
s   1 1.0 
        0.1309018267         0.1551027052
p   3 1.0 
        9.4680970621         1.3467645142
        2.0103545142         1.0678070931
        0.5477100471         0.5108735714
p   1 1.0 
        0.1526861379         0.1360471976
d   1 1.0 
        0.8000000000         1.9292013661

  5 0
s   5 1.0 
     1238.4016938000         0.8208956682
      186.2900499200         1.4766449896
       42.2511763460         2.1526124058
       11.6765579320         2.1081722461
        3.5930506482         0.8290999933
s   1 1.0 
        0.4024514736         0.3601183351
s   1 1.0 
        0.1309018267         0.1551027052
p   3 1.0 
        9.4680970621         1.3467645142
        2.0103545142         1.0678070931
        0.5477100471         0.5108735714
p   1 1.0 
        0.1526861379         0.1360471976
d   1 1.0 
        0.8000000000         1.9292013661

  6 0
s   5 1.0 
     1238.4016938000         0.8208956682
      186.2900499200         1.4766449896
       42.2511763460         2.1526124058
       11.6765579320         2.1081722461
        3.5930506482         0.8290999933
s   1 1.0 
        0.4024514736         0.3601183351
s   1 1.0 
        0.1309018267         0.1551027052
p   3 1.0 
        9.4680970621         1.3467645142
        2.0103545142         1.0678070931
        0.5477100471         0.5108735714
p   1 1.0 
        0.1526861379         0.1360471976
d   1 1.0 
        0.8000000000         1.9292013661

  7 0
s   3 1.0 
       13.0107010000         0.1634903809
        1.9622572000         0.2773515510
        0.4445379600         0.3157501452
s   1 1.0 
        0.1219496200         0.1470772262
p   1 1.0 
        0.8000000000         1.0784563492

  8 0
s   3 1.0 
       13.0107010000         0.1634903809
        1.9622572000         0.2773515510
        0.4445379600         0.3157501452
s   1 1.0 
        0.1219496200         0.1470772262
p   1 1.0 
        0.8000000000         1.0784563492

  9 0
s   3 1.0 
       13.0107010000         0.1634903809
        1.9622572000         0.2773515510
        0.4445379600         0.3157501452
s   1 1.0 
        0.1219496200         0.1470772262
p   1 1.0 
        0.8000000000         1.0784563492

 10 0
s   3 1.0 
       13.0107010000         0.1634903809
        1.9622572000         0.2773515510
        0.4445379600         0.3157501452
s   1 1.0 
        0.1219496200         0.1470772262
p   1 1.0 
        0.8000000000         1.0784563492

 11 0
s   3 1.0 
       13.0107010000         0.1634903809
        1.9622572000         0.2773515510
        0.4445379600         0.3157501452
s   1 1.0 
        0.1219496200         0.1470772262
p   1 1.0 
        0.8000000000         1.0784563492

 12 0
s   5 1.0 
     1712.8415853000        -1.0337585405
      257.6481267700        -1.8620740805
       58.4582458530        -2.7290401880
       16.1983679050        -2.6956734544
        5.0052600809        -1.0640914367
s   1 1.0 
        0.5873185657         0.4781513534
s   1 1.0 
        0.1876459225         0.2031956662
p   3 1.0 
       13.5714702330        -2.1850243557
        2.9257372874        -1.7466999024
        0.7992775075        -0.8114650516
p   1 1.0 
        0.2195434803         0.2142105067
d   1 1.0 
        1.0000000000         2.8508218814

 13 0
s   5 1.0 
     1712.8415853000        -1.0337585405
      257.6481267700        -1.8620740805
       58.4582458530        -2.7290401880
       16.1983679050        -2.6956734544
        5.0052600809        -1.0640914367
s   1 1.0 
        0.5873185657         0.4781513534
s   1 1.0 
        0.1876459225         0.2031956662
p   3 1.0 
       13.5714702330        -2.1850243557
        2.9257372874        -1.7466999024
        0.7992775075        -0.8114650516
p   1 1.0 
        0.2195434803         0.2142105067
d   1 1.0 
        1.0000000000         2.8508218814

 14 0
s   5 1.0 
     1238.4016938000         0.8208956682
      186.2900499200         1.4766449896
       42.2511763460         2.1526124058
       11.6765579320         2.1081722461
        3.5930506482         0.8290999933
s   1 1.0 
        0.4024514736         0.3601183351
s   1 1.0 
        0.1309018267         0.1551027052
p   3 1.0 
        9.4680970621         1.3467645142
        2.0103545142         1.0678070931
        0.5477100471         0.5108735714
p   1 1.0 
        0.1526861379         0.1360471976
d   1 1.0 
        0.8000000000         1.9292013661

 15 0
s   5 1.0 
     1238.4016938000         0.8208956682
      186.2900499200         1.4766449896
       42.2511763460         2.1526124058
       11.6765579320         2.1081722461
        3.5930506482         0.8290999933
s   1 1.0 
        0.4024514736         0.3601183351
s   1 1.0 
        0.1309018267         0.1551027052
p   3 1.0 
        9.4680970621         1.3467645142
        2.0103545142         1.0678070931
        0.5477100471         0.5108735714
p   1 1.0 
        0.1526861379         0.1360471976
d   1 1.0 
        0.8000000000         1.9292013661

 16 0
s   5 1.0 
     1238.4016938000         0.8208956682
      186.2900499200         1.4766449896
       42.2511763460         2.1526124058
       11.6765579320         2.1081722461
        3.5930506482         0.8290999933
s   1 1.0 
        0.4024514736         0.3601183351
s   1 1.0 
        0.1309018267         0.1551027052
p   3 1.0 
        9.4680970621         1.3467645142
        2.0103545142         1.0678070931
        0.5477100471         0.5108735714
p   1 1.0 
        0.1526861379         0.1360471976
d   1 1.0 
        0.8000000000         1.9292013661

 17 0
s   5 1.0 
     1238.4016938000         0.8208956682
      186.2900499200         1.4766449896
       42.2511763460         2.1526124058
       11.6765579320         2.1081722461
        3.5930506482         0.8290999933
s   1 1.0 
        0.4024514736         0.3601183351
s   1 1.0 
        0.1309018267         0.1551027052
p   3 1.0 
        9.4680970621         1.3467645142
        2.0103545142         1.0678070931
        0.5477100471         0.5108735714
p   1 1.0 
        0.1526861379         0.1360471976
d   1 1.0 
        0.8000000000         1.9292013661

 18 0
s   5 1.0 
     1238.4016938000         0.8208956682
      186.2900499200         1.4766449896
       42.2511763460         2.1526124058
       11.6765579320         2.1081722461
        3.5930506482         0.8290999933
s   1 1.0 
        0.4024514736         0.3601183351
s   1 1.0 
        0.1309018267         0.1551027052
p   3 1.0 
        9.4680970621         1.3467645142
        2.0103545142         1.0678070931
        0.5477100471         0.5108735714
p   1 1.0 
        0.1526861379         0.1360471976
d   1 1.0 
        0.8000000000         1.9292013661

 19 0
s   5 1.0 
     1238.4016938000         0.8208956682
      186.2900499200         1.4766449896
       42.2511763460         2.1526124058
       11.6765579320         2.1081722461
        3.5930506482         0.8290999933
s   1 1.0 
        0.4024514736         0.3601183351
s   1 1.0 
        0.1309018267         0.1551027052
p   3 1.0 
        9.4680970621         1.3467645142
        2.0103545142         1.0678070931
        0.5477100471         0.5108735714
p   1 1.0 
        0.1526861379         0.1360471976
d   1 1.0 
        0.8000000000         1.9292013661

 20 0
s   3 1.0 
       13.0107010000         0.1634903809
        1.9622572000         0.2773515510
        0.4445379600         0.3157501452
s   1 1.0 
        0.1219496200         0.1470772262
p   1 1.0 
        0.8000000000         1.0784563492

 21 0
s   3 1.0 
       13.0107010000         0.1634903809
        1.9622572000         0.2773515510
        0.4445379600         0.3157501452
s   1 1.0 
        0.1219496200         0.1470772262
p   1 1.0 
        0.8000000000         1.0784563492

 22 0
s   3 1.0 
       13.0107010000         0.1634903809
        1.9622572000         0.2773515510
        0.4445379600         0.3157501452
s   1 1.0 
        0.1219496200         0.1470772262
p   1 1.0 
        0.8000000000         1.0784563492

 23 0
s   3 1.0 
       13.0107010000         0.1634903809
        1.9622572000         0.2773515510
        0.4445379600         0.3157501452
s   1 1.0 
        0.1219496200         0.1470772262
p   1 1.0 
        0.8000000000         1.0784563492

 24 0
s   3 1.0 
       13.0107010000         0.1634903809
        1.9622572000         0.2773515510
        0.4445379600         0.3157501452
s   1 1.0 
        0.1219496200         0.1470772262
p   1 1.0 
        0.8000000000         1.0784563492

[5D]
[7F]
[9G]
[MO]
 Sym=     1a
 Ene= -1.43763243004678E+01
 Spin= Alpha
 Occup= 2.000000
  1      -0.000001958097
  2       0.000049971118
  3      -0.002176488842
  4       0.000001601583
  5      -0.000024953054
  6       0.000007717729
  7      -0.000955937894
  8      -0.000030887042
  9      -0.000277643389
 10       0.000000526536
 11      -0.000016915871
 12      -0.000018583698
 13      -0.000001163195
 14      -0.000000487612
 15      -0.000006471526
 16       0.000064371378
 17       0.000372592369
 18       0.000006848209
 19      -0.000035913744
 20       0.000036683168
 21       0.000311880713
 22       0.000253374620
 23       0.000144867848
 24      -0.000006939898
 25       0.000006976994
 26      -0.000016422567
 27       0.000001673176
 28       0.000016598819
 29      -0.000003520747
 30       0.000088829924
 31      -0.002390399340
 32      -0.000009831023
 33      -0.000013246132
 34       0.000026168170
 35      -0.001057826423
 36      -0.000245935667
 37      -0.000623510975
 38       0.000006321916
 39      -0.000006881486
 40      -0.000008827276
 41      -0.000033662970
 42       0.000008980557
 43      -0.000011431325
 44       0.000239277209
 45       0.000405610167
 46       0.000053050546
 47       0.000043648443
 48       0.000075902274
 49      -0.001625843854
 50       0.000032733069
 51      -0.001593809508
 52      -0.000061128881
 53       0.000001819500
 54       0.000040938712
 55      -0.000073107526
 56       0.000029626598
 57       0.000110499415
 58      -0.001629555194
 59       0.001906914091
 60      -0.000357372251
 61       0.000237427962
 62      -0.000502857808
 63       0.000018173880
 64      -0.000907303328
 65       0.000724001917
 66      -0.000043212398
 67       0.000004784970
 68      -0.000044484880
 69      -0.000008935244
 70       0.000103161715
 71      -0.000006984733
 72       0.000217178617
 73       0.000154209991
 74       0.000082805499
 75      -0.000004148863
 76       0.000004250004
 77      -0.001574713817
 78       0.000206186075
 79      -0.001285805837
 80       0.000013210443
 81      -0.000106070315
 82      -0.000001057149
 83       0.000037878683
 84       0.000027232854
 85       0.000157579033
 86       0.000480055399
 87       0.000054771057
 88      -0.000054237442
 89       0.000003611594
 90      -0.000008322477
 91      -0.000034631230
 92       0.000009177884
 93       0.000015632015
 94       0.000023030316
 95       0.000028082077
 96       0.000046769331
 97      -0.000021144902
 98      -0.000024029941
 99       0.000004261809
100      -0.000000071903
101      -0.000003002332
102       0.000040959660
103      -0.000014587577
104      -0.000001158191
105       0.000153169807
106       0.000308251076
107       0.000032527759
108       0.000016367596
109       0.000101996053
110      -0.019661905884
111      -0.001970682670
112       0.010187781015
113       0.000623666505
114      -0.000973840088
115       0.001387987864
116      -0.001163951003
117      -0.002714788497
118       0.001692922336
119      -0.000804702398
120      -0.001148459065
121       0.001380241350
122       0.000133636275
123       0.000705457586
124      -0.988423812490
125       0.045004191842
126      -0.047438126543
127       0.003076624736
128       0.000956833005
129       0.001474770281
130       0.010143314279
131       0.007834098035
132       0.000423707777
133       0.000482875926
134       0.000217332761
135      -0.000905984439
136      -0.000433229939
137      -0.000443249026
138       0.000187180667
139       0.000384491393
140       0.020807739259
141      -0.000472859245
142      -0.000918341257
143       0.000496324317
144       0.002268262235
145       0.015666935852
146      -0.012978803701
147       0.000471682073
148       0.000608007272
149       0.000379561226
150       0.000399522565
151      -0.000894414155
152      -0.000062229614
153       0.000968171542
154      -0.000764066998
155      -0.000065070510
156      -0.000092944000
157       0.000030264077
158      -0.002249908806
159       0.000783233998
160      -0.002901107652
161      -0.000135281334
162       0.000173441382
163       0.000206926812
164       0.000227829611
165       0.000205261082
166       0.000016960971
167      -0.000681292666
168       0.004196307167
169      -0.000006528841
170      -0.000135908774
171       0.000142596668
172       0.000287137062
173       0.002986010934
174      -0.002708071887
175      -0.000035948988
176       0.000075220997
177      -0.000087691672
178       0.000021365684
179       0.000129533170
180       0.000025622492
181      -0.000270877472
182      -0.005459808191
183      -0.000065737784
184      -0.000095347657
185       0.000054757611
186       0.000663839065
187      -0.002040859477
188       0.002498421426
189       0.000008427003
190       0.000029202236
191      -0.000003306816
192       0.000019912552
193      -0.000002862584
194       0.000031458004
195      -0.000943374397
196       0.003219839127
197      -0.000177273962
198      -0.000097810433
199      -0.000030174447
200       0.003088024355
201      -0.000635083462
202       0.003106259446
203       0.000004801027
204       0.000053674983
205      -0.000167605989
206      -0.000035711695
207       0.000068828161
208      -0.000039782353
209       0.000665332248
210      -0.007859411629
211      -0.000044886092
212      -0.000040024796
213       0.000016187953
214      -0.003275788768
215      -0.005502892992
216       0.002600592581
217       0.000257209468
218       0.000340972495
219      -0.000162723595
220       0.000062826099
221      -0.000358973396
222       0.000169866347
223       0.002689136004
224      -0.000074240817
225      -0.000017831836
226      -0.000046860668
227       0.000118219680
228       0.001622809400
229       0.000055050058
230      -0.000108553564
231       0.000178683031
232       0.000362379717
233       0.000900152383
234      -0.000112210297
235      -0.000077131518
236      -0.000014846816
237      -0.000126471697
238      -0.000005251851
239      -0.000035920294
240       0.000064153446
241      -0.000084818197
242       0.000438428936
243       0.001007768176
244       0.000022952362
245       0.000028717518
246      -0.000011711968
 Sym=     1a
 Ene= -1.43731241120763E+01
 Spin= Alpha
 Occup= 2.000000
  1       0.000024664548
  2      -0.000805026448
  3       0.005537997516
  4      -0.000142945771
  5       0.000079915457
  6      -0.000058085843
  7       0.003906071187
  8      -0.000126656985
  9       0.001556502665
 10       0.000033375817
 11       0.000137431000
 12       0.000177028057
 13       0.000108400013
 14       0.000034358845
 15       0.000023270271
 16      -0.000185952001
 17      -0.002706103620
 18      -0.000064703720
 19       0.000015335612
 20      -0.000079547134
 21      -0.002396156838
 22       0.000395256980
 23      -0.000329492541
 24       0.000001852844
 25      -0.000031973261
 26       0.000042081832
 27      -0.000005380247
 28      -0.000023744613
 29       0.000031257403
 30      -0.000884357075
 31       0.003997201486
 32      -0.000061897125
 33      -0.000019019278
 34      -0.000171745369
 35       0.000430349506
 36       0.001320172524
 37       0.002088167531
 38      -0.000099193635
 39       0.000081059042
 40       0.000094259106
 41       0.000193595312
 42      -0.000062504209
 43       0.000052070833
 44      -0.000619371307
 45       0.000612777167
 46      -0.000137339180
 47       0.000034361314
 48      -0.000440218925
 49      -0.003052034105
 50       0.002118173813
 51       0.002106862493
 52      -0.000196913550
 53      -0.000408356146
 54       0.000174601926
 55       0.000002804515
 56      -0.000380252300
 57       0.000251906638
 58      -0.000500153501
 59       0.015020707120
 60      -0.000641884226
 61       0.000106679114
 62      -0.000506697534
 63       0.018469775184
 64      -0.000613495749
 65       0.011823990285
 66       0.000347235757
 67      -0.000744923448
 68      -0.000095283505
 69      -0.000679070173
 70      -0.000614761293
 71       0.000043728099
 72      -0.000636779922
 73      -0.000251860656
 74      -0.000409355533
 75       0.000263679105
 76      -0.000226163646
 77       0.004118495881
 78      -0.003115174669
 79      -0.002118777554
 80       0.000249005448
 81      -0.000160725242
 82       0.000425362667
 83      -0.000171914442
 84      -0.000011229105
 85      -0.000174503000
 86       0.001885406277
 87      -0.000440827959
 88       0.000193467435
 89      -0.000020623733
 90       0.000218242346
 91       0.000513516957
 92      -0.000048112548
 93      -0.000077177595
 94      -0.000156169837
 95      -0.000203546467
 96      -0.000249154151
 97       0.000087709888
 98      -0.000002533416
 99       0.000002181739
100       0.000246344319
101       0.000579200487
102      -0.000058709163
103       0.000063328363
104       0.000024165769
105      -0.000017291085
106       0.001895906884
107      -0.000064452831
108      -0.000153391756
109      -0.000333359666
110      -0.988330777715
111       0.045792650914
112      -0.045824216702
113       0.002025873716
114       0.002711593929
115      -0.001007015797
116       0.012575705209
117       0.005852788043
118       0.004192688309
119       0.000622390285
120       0.000719117488
121      -0.000787227241
122      -0.000077623918
123      -0.000698217545
124       0.018690566744
125      -0.003881743269
126       0.012488655153
127      -0.000622543024
128       0.000838365212
129      -0.001267442067
130      -0.002034933289
131      -0.004015359389
132       0.002222820029
133      -0.000811562135
134      -0.000858155403
135       0.001704240380
136       0.000488710782
137       0.000609166735
138       0.000059978405
139      -0.001203341419
140       0.002047687146
141       0.000077895045
142      -0.000453034221
143       0.000500587261
144      -0.014381077595
145      -0.004203094162
146      -0.007376624505
147      -0.000159220717
148       0.000194284037
149       0.000179258722
150       0.000273036236
151       0.000163684984
152      -0.000045124676
153       0.000398954173
154       0.007289734823
155      -0.000054523750
156       0.000124441611
157      -0.000153487137
158       0.000194966051
159       0.004770377236
160      -0.004804978130
161       0.000050753807
162      -0.000032259518
163      -0.000137363410
164      -0.000080822789
165      -0.000017078286
166      -0.000014699139
167       0.000439226372
168      -0.001746833204
169      -0.000038276350
170       0.000011244005
171      -0.000054502834
172       0.003412279729
173       0.001826228771
174       0.001065407149
175       0.000004749379
176      -0.000015058157
177       0.000062307897
178       0.000007483053
179      -0.000046991889
180       0.000001495079
181      -0.000087442187
182       0.000859100656
183       0.000005214972
184       0.000008524649
185      -0.000004374081
186       0.003327658347
187       0.000319114059
188       0.002327960148
189      -0.000002536168
190      -0.000002161676
191      -0.000003569814
192      -0.000002192712
193       0.000002482417
194       0.000044482023
195      -0.000465389128
196      -0.003590571286
197      -0.000037953652
198      -0.000076270408
199       0.000037236477
200       0.000499178666
201      -0.003881598888
202       0.004242954696
203      -0.000018837209
204      -0.000044396557
205       0.000064604909
206       0.000003630259
207       0.000000541837
208       0.000048111773
209      -0.000268306686
210      -0.007116532746
211       0.000079790132
212       0.000202716169
213      -0.000130721161
214      -0.011524199214
215      -0.007290854132
216      -0.001803716478
217       0.000129592413
218      -0.000172969300
219      -0.000073484586
220      -0.000197497812
221      -0.000196367441
222       0.000011014972
223      -0.005174089735
224      -0.000137206029
225      -0.000029309706
226      -0.000064585526
227      -0.000137695453
228      -0.000980793106
229      -0.000033675412
230      -0.000066160318
231       0.000051890916
232      -0.000153525604
233      -0.000341486422
234      -0.000075983152
235      -0.000064489972
236      -0.000009303678
237       0.000055832338
238      -0.000007699703
239      -0.000125311432
240      -0.000016002322
241      -0.000082309072
242       0.000097347953
243       0.000804745690
244       0.000009816487
245       0.000103748453
246      -0.000097490279
 Sym=     1a
 Ene= -1.02276704191596E+01
 Spin= Alpha
 Occup= 2.000000
  1      -0.000445101788
  2       0.000581725630
  3       0.009311954680
  4       0.000116716131
  5      -0.000104121921
  6      -0.000129214950
  7       0.001783996624
  8       0.000444879503
  9       0.001833751683
 10       0.000068221198
 11      -0.000118754572
 12      -0.000177801557
 13      -0.000165802252
 14       0.000119458862
 15       0.000270927194
 16       0.001035659868
 17      -0.002233305796
 18       0.000277752197
 19       0.000004855823
 20       0.000179213550
 21      -0.002083806307
 22      -0.000050935832
 23      -0.001403576336
 24      -0.000020409958
 25      -0.000023776090
 26      -0.000096307717
 27      -0.000042946078
 28       0.000066651706
 29      -0.000459263184
 30       0.000595559373
 31       0.009178247002
 32      -0.000051360330
 33       0.000148954464
 34       0.000137316496
 35       0.002372772068
 36      -0.000391469193
 37       0.000860490982
 38      -0.000064119490
 39      -0.000114375793
 40      -0.000213353174
 41      -0.000151672972
 42       0.000054679381
 43      -0.006535352887
 44       0.002482851241
 45      -0.030662808001
 46       0.000343056267
 47       0.001337037090
 48       0.001461109514
 49       0.007091801049
 50      -0.005631870105
 51      -0.006296894657
 52       0.000506358693
 53       0.000366831819
 54       0.001364797143
 55      -0.000409689209
 56       0.000157141471
 57      -0.985097859980
 58      -0.051856387289
 59       0.057698386163
 60       0.000558082489
 61       0.000873246103
 62      -0.000527951774
 63      -0.023735014761
 64      -0.006959222773
 65      -0.010594710539
 66       0.000017218908
 67      -0.000782339781
 68      -0.001244390783
 69      -0.000975907269
 70       0.000349570682
 71      -0.006617172577
 72       0.002798477385
 73      -0.031053989603
 74       0.001850999391
 75      -0.000714956352
 76      -0.000598688164
 77      -0.002529085726
 78       0.007894114061
 79       0.007532093114
 80      -0.000483246760
 81      -0.000554524108
 82       0.000374923622
 83       0.000912469664
 84      -0.000829703864
 85      -0.000392581990
 86      -0.000618288684
 87      -0.000146646874
 88       0.000157303891
 89       0.000212640128
 90      -0.000406998221
 91      -0.001218923203
 92      -0.000101719925
 93      -0.000022449937
 94      -0.000115949126
 95      -0.000362087853
 96      -0.000840960743
 97      -0.000049752330
 98      -0.000027200164
 99      -0.000009682803
100      -0.000419665266
101      -0.001242476954
102      -0.000136235495
103       0.000027993452
104      -0.000055978407
105      -0.000387004218
106      -0.000623084881
107       0.000135651906
108      -0.000174516628
109      -0.000169037849
110       0.000154375928
111      -0.000709028748
112       0.010829369047
113       0.000594489426
114       0.000006601148
115       0.000461215416
116      -0.008461850208
117      -0.001868578751
118      -0.004607435832
119      -0.000261349734
120       0.001561818379
121       0.000146392333
122       0.001225206398
123       0.000506621754
124       0.000113721718
125       0.002087810427
126      -0.009701803651
127       0.000286664468
128       0.000297198052
129      -0.000053141254
130       0.004142128833
131       0.005301003758
132      -0.001809530654
133       0.000072494978
134      -0.000167086641
135       0.000253304418
136      -0.000024903483
137      -0.000227305464
138       0.074010186875
139       0.005840821790
140       0.000347430387
141      -0.000106105905
142       0.000435303532
143      -0.000488449221
144       0.006077300465
145       0.007700811633
146      -0.002523892938
147       0.000019935818
148       0.000054217440
149      -0.000335415275
150      -0.000127372459
151       0.000135327790
152       0.000656872108
153       0.000040127379
154       0.002877878785
155       0.000062297643
156      -0.000090829985
157       0.000135202620
158      -0.002057207840
159      -0.002901464849
160       0.001166542554
161      -0.000109351324
162      -0.000093142097
163       0.000198754268
164       0.000048994837
165       0.000077426520
166      -0.000144204883
167      -0.000301292803
168      -0.006384507721
169       0.000047158342
170       0.000001904211
171       0.000040216055
172       0.000304167826
173      -0.000778032412
174       0.001027661929
175       0.000023512978
176       0.000000753770
177      -0.000036568760
178      -0.000020645874
179      -0.000016812709
180      -0.000225792633
181      -0.000414245751
182       0.006236032309
183      -0.000120705633
184      -0.000049526426
185      -0.000040019744
186       0.001906111889
187       0.002662382452
188      -0.001163868971
189       0.000018177322
190       0.000034160723
191      -0.000040882267
192      -0.000000134369
193       0.000003982724
194      -0.000398372166
195      -0.000275211638
196      -0.016851275092
197      -0.000046170323
198      -0.000204438169