[Molden Format]
[Title]
 Molden file created by orca_2mkl for BaseName=Z_planar_azobenzene

[Atoms] AU
C    1   6        -17.6764604622         9.7290471306        -1.2209520551 
C    2   6        -19.0553747248         7.7568722455        -2.3059950067 
C    3   6        -18.0400437703         5.3213365123        -2.3775022436 
C    4   6        -15.6387687720         4.8559536573        -1.3776481462 
C    5   6        -14.2188852467         6.8431896597        -0.3112378943 
C    6   6        -15.2749397994         9.2709019267        -0.2182633685 
H    7   1        -14.2263874595        10.8131641164         0.6242143366 
H    8   1        -18.4698808768        11.6129907026        -1.1524872773 
H    9   1        -20.9154888502         8.1128966491        -3.0783827694 
H   10   1        -19.1182270161         3.7899780424        -3.1997220845 
H   11   1        -14.9113753885         2.9469145223        -1.4271400736 
N   12   7        -11.7803637463         6.4615594670         0.7759782424 
N   13   7        -10.0976382130         4.8602055411         1.2636598658 
C   14   6         -9.4035229068         2.2601502507         1.0847405954 
C   15   6         -7.0124146350         1.5302813260         1.9608554256 
C   16   6         -6.2308428033        -0.9880055146         1.7877376145 
C   17   6         -7.8254126124        -2.7973238015         0.7144676567 
C   18   6        -10.1981149516        -2.0880150972        -0.1993283126 
C   19   6        -10.9867543591         0.4281930447        -0.0286671455 
H   20   1        -12.8186170788         0.9326365389        -0.7808915303 
H   21   1         -5.7573908177         2.9175670754         2.7904263011 
H   22   1         -4.3864889938        -1.5354402783         2.4821174824 
H   23   1         -7.2171286671        -4.7453290894         0.5782372997 
H   24   1        -11.4241881645        -3.4870549431        -1.0496483811 
[GTO]
  1 0
s   5 1.0 
     1238.4016938000         0.8208956682
      186.2900499200         1.4766449896
       42.2511763460         2.1526124058
       11.6765579320         2.1081722461
        3.5930506482         0.8290999933
s   1 1.0 
        0.4024514736         0.3601183351
s   1 1.0 
        0.1309018267         0.1551027052
p   3 1.0 
        9.4680970621         1.3467645142
        2.0103545142         1.0678070931
        0.5477100471         0.5108735714
p   1 1.0 
        0.1526861379         0.1360471976
d   1 1.0 
        0.8000000000         1.9292013661

  2 0
s   5 1.0 
     1238.4016938000         0.8208956682
      186.2900499200         1.4766449896
       42.2511763460         2.1526124058
       11.6765579320         2.1081722461
        3.5930506482         0.8290999933
s   1 1.0 
        0.4024514736         0.3601183351
s   1 1.0 
        0.1309018267         0.1551027052
p   3 1.0 
        9.4680970621         1.3467645142
        2.0103545142         1.0678070931
        0.5477100471         0.5108735714
p   1 1.0 
        0.1526861379         0.1360471976
d   1 1.0 
        0.8000000000         1.9292013661

  3 0
s   5 1.0 
     1238.4016938000         0.8208956682
      186.2900499200         1.4766449896
       42.2511763460         2.1526124058
       11.6765579320         2.1081722461
        3.5930506482         0.8290999933
s   1 1.0 
        0.4024514736         0.3601183351
s   1 1.0 
        0.1309018267         0.1551027052
p   3 1.0 
        9.4680970621         1.3467645142
        2.0103545142         1.0678070931
        0.5477100471         0.5108735714
p   1 1.0 
        0.1526861379         0.1360471976
d   1 1.0 
        0.8000000000         1.9292013661

  4 0
s   5 1.0 
     1238.4016938000         0.8208956682
      186.2900499200         1.4766449896
       42.2511763460         2.1526124058
       11.6765579320         2.1081722461
        3.5930506482         0.8290999933
s   1 1.0 
        0.4024514736         0.3601183351
s   1 1.0 
        0.1309018267         0.1551027052
p   3 1.0 
        9.4680970621         1.3467645142
        2.0103545142         1.0678070931
        0.5477100471         0.5108735714
p   1 1.0 
        0.1526861379         0.1360471976
d   1 1.0 
        0.8000000000         1.9292013661

  5 0
s   5 1.0 
     1238.4016938000         0.8208956682
      186.2900499200         1.4766449896
       42.2511763460         2.1526124058
       11.6765579320         2.1081722461
        3.5930506482         0.8290999933
s   1 1.0 
        0.4024514736         0.3601183351
s   1 1.0 
        0.1309018267         0.1551027052
p   3 1.0 
        9.4680970621         1.3467645142
        2.0103545142         1.0678070931
        0.5477100471         0.5108735714
p   1 1.0 
        0.1526861379         0.1360471976
d   1 1.0 
        0.8000000000         1.9292013661

  6 0
s   5 1.0 
     1238.4016938000         0.8208956682
      186.2900499200         1.4766449896
       42.2511763460         2.1526124058
       11.6765579320         2.1081722461
        3.5930506482         0.8290999933
s   1 1.0 
        0.4024514736         0.3601183351
s   1 1.0 
        0.1309018267         0.1551027052
p   3 1.0 
        9.4680970621         1.3467645142
        2.0103545142         1.0678070931
        0.5477100471         0.5108735714
p   1 1.0 
        0.1526861379         0.1360471976
d   1 1.0 
        0.8000000000         1.9292013661

  7 0
s   3 1.0 
       13.0107010000         0.1634903809
        1.9622572000         0.2773515510
        0.4445379600         0.3157501452
s   1 1.0 
        0.1219496200         0.1470772262
p   1 1.0 
        0.8000000000         1.0784563492

  8 0
s   3 1.0 
       13.0107010000         0.1634903809
        1.9622572000         0.2773515510
        0.4445379600         0.3157501452
s   1 1.0 
        0.1219496200         0.1470772262
p   1 1.0 
        0.8000000000         1.0784563492

  9 0
s   3 1.0 
       13.0107010000         0.1634903809
        1.9622572000         0.2773515510
        0.4445379600         0.3157501452
s   1 1.0 
        0.1219496200         0.1470772262
p   1 1.0 
        0.8000000000         1.0784563492

 10 0
s   3 1.0 
       13.0107010000         0.1634903809
        1.9622572000         0.2773515510
        0.4445379600         0.3157501452
s   1 1.0 
        0.1219496200         0.1470772262
p   1 1.0 
        0.8000000000         1.0784563492

 11 0
s   3 1.0 
       13.0107010000         0.1634903809
        1.9622572000         0.2773515510
        0.4445379600         0.3157501452
s   1 1.0 
        0.1219496200         0.1470772262
p   1 1.0 
        0.8000000000         1.0784563492

 12 0
s   5 1.0 
     1712.8415853000        -1.0337585405
      257.6481267700        -1.8620740805
       58.4582458530        -2.7290401880
       16.1983679050        -2.6956734544
        5.0052600809        -1.0640914367
s   1 1.0 
        0.5873185657         0.4781513534
s   1 1.0 
        0.1876459225         0.2031956662
p   3 1.0 
       13.5714702330        -2.1850243557
        2.9257372874        -1.7466999024
        0.7992775075        -0.8114650516
p   1 1.0 
        0.2195434803         0.2142105067
d   1 1.0 
        1.0000000000         2.8508218814

 13 0
s   5 1.0 
     1712.8415853000        -1.0337585405
      257.6481267700        -1.8620740805
       58.4582458530        -2.7290401880
       16.1983679050        -2.6956734544
        5.0052600809        -1.0640914367
s   1 1.0 
        0.5873185657         0.4781513534
s   1 1.0 
        0.1876459225         0.2031956662
p   3 1.0 
       13.5714702330        -2.1850243557
        2.9257372874        -1.7466999024
        0.7992775075        -0.8114650516
p   1 1.0 
        0.2195434803         0.2142105067
d   1 1.0 
        1.0000000000         2.8508218814

 14 0
s   5 1.0 
     1238.4016938000         0.8208956682
      186.2900499200         1.4766449896
       42.2511763460         2.1526124058
       11.6765579320         2.1081722461
        3.5930506482         0.8290999933
s   1 1.0 
        0.4024514736         0.3601183351
s   1 1.0 
        0.1309018267         0.1551027052
p   3 1.0 
        9.4680970621         1.3467645142
        2.0103545142         1.0678070931
        0.5477100471         0.5108735714
p   1 1.0 
        0.1526861379         0.1360471976
d   1 1.0 
        0.8000000000         1.9292013661

 15 0
s   5 1.0 
     1238.4016938000         0.8208956682
      186.2900499200         1.4766449896
       42.2511763460         2.1526124058
       11.6765579320         2.1081722461
        3.5930506482         0.8290999933
s   1 1.0 
        0.4024514736         0.3601183351
s   1 1.0 
        0.1309018267         0.1551027052
p   3 1.0 
        9.4680970621         1.3467645142
        2.0103545142         1.0678070931
        0.5477100471         0.5108735714
p   1 1.0 
        0.1526861379         0.1360471976
d   1 1.0 
        0.8000000000         1.9292013661

 16 0
s   5 1.0 
     1238.4016938000         0.8208956682
      186.2900499200         1.4766449896
       42.2511763460         2.1526124058
       11.6765579320         2.1081722461
        3.5930506482         0.8290999933
s   1 1.0 
        0.4024514736         0.3601183351
s   1 1.0 
        0.1309018267         0.1551027052
p   3 1.0 
        9.4680970621         1.3467645142
        2.0103545142         1.0678070931
        0.5477100471         0.5108735714
p   1 1.0 
        0.1526861379         0.1360471976
d   1 1.0 
        0.8000000000         1.9292013661

 17 0
s   5 1.0 
     1238.4016938000         0.8208956682
      186.2900499200         1.4766449896
       42.2511763460         2.1526124058
       11.6765579320         2.1081722461
        3.5930506482         0.8290999933
s   1 1.0 
        0.4024514736         0.3601183351
s   1 1.0 
        0.1309018267         0.1551027052
p   3 1.0 
        9.4680970621         1.3467645142
        2.0103545142         1.0678070931
        0.5477100471         0.5108735714
p   1 1.0 
        0.1526861379         0.1360471976
d   1 1.0 
        0.8000000000         1.9292013661

 18 0
s   5 1.0 
     1238.4016938000         0.8208956682
      186.2900499200         1.4766449896
       42.2511763460         2.1526124058
       11.6765579320         2.1081722461
        3.5930506482         0.8290999933
s   1 1.0 
        0.4024514736         0.3601183351
s   1 1.0 
        0.1309018267         0.1551027052
p   3 1.0 
        9.4680970621         1.3467645142
        2.0103545142         1.0678070931
        0.5477100471         0.5108735714
p   1 1.0 
        0.1526861379         0.1360471976
d   1 1.0 
        0.8000000000         1.9292013661

 19 0
s   5 1.0 
     1238.4016938000         0.8208956682
      186.2900499200         1.4766449896
       42.2511763460         2.1526124058
       11.6765579320         2.1081722461
        3.5930506482         0.8290999933
s   1 1.0 
        0.4024514736         0.3601183351
s   1 1.0 
        0.1309018267         0.1551027052
p   3 1.0 
        9.4680970621         1.3467645142
        2.0103545142         1.0678070931
        0.5477100471         0.5108735714
p   1 1.0 
        0.1526861379         0.1360471976
d   1 1.0 
        0.8000000000         1.9292013661

 20 0
s   3 1.0 
       13.0107010000         0.1634903809
        1.9622572000         0.2773515510
        0.4445379600         0.3157501452
s   1 1.0 
        0.1219496200         0.1470772262
p   1 1.0 
        0.8000000000         1.0784563492

 21 0
s   3 1.0 
       13.0107010000         0.1634903809
        1.9622572000         0.2773515510
        0.4445379600         0.3157501452
s   1 1.0 
        0.1219496200         0.1470772262
p   1 1.0 
        0.8000000000         1.0784563492

 22 0
s   3 1.0 
       13.0107010000         0.1634903809
        1.9622572000         0.2773515510
        0.4445379600         0.3157501452
s   1 1.0 
        0.1219496200         0.1470772262
p   1 1.0 
        0.8000000000         1.0784563492

 23 0
s   3 1.0 
       13.0107010000         0.1634903809
        1.9622572000         0.2773515510
        0.4445379600         0.3157501452
s   1 1.0 
        0.1219496200         0.1470772262
p   1 1.0 
        0.8000000000         1.0784563492

 24 0
s   3 1.0 
       13.0107010000         0.1634903809
        1.9622572000         0.2773515510
        0.4445379600         0.3157501452
s   1 1.0 
        0.1219496200         0.1470772262
p   1 1.0 
        0.8000000000         1.0784563492

[5D]
[7F]
[9G]
[MO]
 Sym=     1a
 Ene= -1.43525913265092E+01
 Spin= Alpha
 Occup= 2.000000
  1       0.000000719806
  2      -0.000222935123
  3       0.003959034760
  4      -0.000107507641
  5       0.000037214783
  6      -0.000038367267
  7       0.002729774814
  8      -0.000978610234
  9       0.001071637823
 10      -0.000050717925
 11       0.000079301314
 12       0.000049353844
 13       0.000008252547
 14       0.000033350506
 15       0.000011032493
 16      -0.000034352140
 17      -0.005160983167
 18      -0.000047367586
 19       0.000051637467
 20      -0.000005790220
 21      -0.002228562703
 22       0.002411970047
 23      -0.000506096848
 24       0.000002217952
 25      -0.000006597232
 26       0.000007708864
 27      -0.000011038779
 28       0.000018154900
 29       0.000015921780
 30      -0.000709151814
 31       0.007308174527
 32      -0.000041523544
 33      -0.000120756471
 34      -0.000037071559
 35       0.001536820797
 36       0.003999707570
 37       0.001561749444
 38      -0.000122250659
 39       0.000124877099
 40       0.000002518411
 41       0.000051099162
 42      -0.000095520060
 43       0.000013128524
 44       0.000200454514
 45      -0.011758388747
 46      -0.000254134756
 47      -0.000032784699
 48      -0.000127955040
 49      -0.002541589379
 50      -0.002383126318
 51      -0.001702890215
 52      -0.000054753173
 53      -0.000222113009
 54      -0.000011450323
 55      -0.000402960473
 56      -0.000177796920
 57       0.000258080901
 58      -0.001083494170
 59       0.010795398718
 60      -0.001167041608
 61       0.000590025801
 62      -0.000439844858
 63       0.007331303024
 64      -0.010754077327
 65       0.001235934893
 66       0.000170088690
 67      -0.000521504072
 68       0.000200112574
 69      -0.000759293475
 70       0.000345393358
 71      -0.000057152501
 72       0.000600048776
 73       0.002315652441
 74      -0.000017194653
 75      -0.000083489181
 76      -0.000025312992
 77       0.002702148706
 78      -0.004275543116
 79       0.000097661130
 80      -0.000081957779
 81       0.000073780296
 82       0.000145742894
 83      -0.000112443445
 84       0.000113821385
 85      -0.000019638156
 86       0.000892867005
 87      -0.000144275041
 88       0.000123540499
 89      -0.000024353600
 90       0.000163392670
 91       0.000372249359
 92      -0.000066135867
 93      -0.000056699094
 94      -0.000045999177
 95      -0.000177109447
 96      -0.000163911484
 97       0.000044287286
 98      -0.000096931274
 99       0.000001620323
100       0.000402319738
101       0.000788539525
102      -0.000013843871
103       0.000018196636
104      -0.000000672109
105      -0.000119030458
106       0.001245904437
107      -0.000005176260
108      -0.000089090033
109      -0.000018959880
110      -0.711560766685
111       0.029289876422
112      -0.020963239086
113       0.001491787943
114       0.001032520445
115       0.000918339011
116       0.004349529665
117       0.001916588940
118       0.002476290711
119       0.000207037507
120      -0.000119786740
121       0.000027832761
122       0.000053446065
123       0.000258181265
124      -0.687135674023
125       0.028099643107
126      -0.019812797014
127       0.000627954389
128       0.001773580009
129       0.000641060166
130       0.001164436319
131       0.004599173625
132       0.001426602822
133       0.000239398963
134      -0.000184175353
135       0.000069199508
136      -0.000042277823
137       0.000326322653
138       0.000254214979
139      -0.001118081663
140       0.010404844880
141       0.000698452894
142      -0.001162964501
143       0.000103182731
144      -0.010694783540
145       0.005768951064
146      -0.003813525240
147       0.000404369854
148       0.000156660277
149      -0.000001514641
150       0.000687921336
151       0.000554790321
152      -0.000056793150
153       0.000589648537
154       0.002452796332
155      -0.000078894997
156      -0.000023955087
157      -0.000042128287
158      -0.004345782256
159       0.002152810522
160      -0.001300220830
161      -0.000084334152
162       0.000125995937
163       0.000092476992
164       0.000044851616
165       0.000140577130
166       0.000000172883
167      -0.000200096220
168       0.003793868362
169       0.000047852219
170      -0.000104840768
171      -0.000003041872
172      -0.001200045793
173       0.002743758327
174      -0.000001985438
175      -0.000064593887
176       0.000047380578
177       0.000045950762
178      -0.000040364944
179       0.000032008928
180       0.000010507533
181      -0.000030459622
182      -0.005041721789
183       0.000055451886
184      -0.000036690957
185       0.000012712185
186       0.002508652178
187      -0.001963781527
188       0.000729761514
189       0.000008727911
190       0.000002826328
191       0.000007301456
192       0.000006663491
193       0.000018470171
194       0.000015819151
195      -0.000692130319
196       0.007155951292
197      -0.000097420386
198      -0.000055813934
199      -0.000063001594
200       0.003384686972
201       0.002194761622
202       0.001994244992
203      -0.000134341552
204       0.000069928534
205       0.000021655712
206      -0.000064896949
207      -0.000109150989
208       0.000015156966
209       0.000175218314
210      -0.011655264016
211       0.000008939186
212      -0.000275624453
213      -0.000050880145
214      -0.001956528241
215      -0.003166725546
216      -0.001525593580
217       0.000080660078
218       0.000151947615
219      -0.000137091337
220       0.000425143817
221      -0.000053710522
222      -0.000126467184
223       0.001021195752
224      -0.000074808075
225      -0.000014934447
226      -0.000039527907
227      -0.000021228991
228       0.000838824439
229       0.000134206379
230      -0.000124185095
231       0.000019820534
232       0.000153172000
233       0.000347431231
234      -0.000041617165
235      -0.000078966842
236      -0.000031809587
237      -0.000171943454
238      -0.000161491645
239      -0.000093012726
240       0.000031790051
241      -0.000037725841
242       0.000394144757
243       0.000780920023
244       0.000016620831
245      -0.000009798773
246       0.000004073518
 Sym=     1a
 Ene= -1.43525614827162E+01
 Spin= Alpha
 Occup= 2.000000
  1      -0.000014006825
  2       0.000630888242
  3      -0.004653167564
  4       0.000117182415
  5      -0.000094606844
  6       0.000022310736
  7      -0.002108860115
  8       0.002466600727
  9      -0.000387396095
 10       0.000101122878
 11      -0.000129402203
 12      -0.000059137804
 13      -0.000027890937
 14      -0.000004077647
 15      -0.000013803116
 16       0.000087427298
 17       0.003562081859
 18       0.000078193389
 19      -0.000003275849
 20       0.000028964296
 21       0.001862340332
 22      -0.000411277501
 23       0.000773771799
 24       0.000013161965
 25       0.000002318138
 26      -0.000012558884
 27       0.000023201512
 28      -0.000003155042
 29      -0.000003507471
 30       0.000480796245
 31      -0.003890317857
 32       0.000080804249
 33       0.000091536330
 34       0.000044701236
 35      -0.001684527512
 36      -0.000907755688
 37      -0.000951212320
 38       0.000121891007
 39      -0.000084423300
 40       0.000004433552
 41       0.000006320611
 42       0.000119702630
 43       0.000061518041
 44      -0.000742318875
 45       0.002859598424
 46       0.000119096788
 47       0.000070465569
 48       0.000080211257
 49       0.000207101697
 50      -0.005342404807
 51      -0.000957021108
 52       0.000169206425
 53       0.000075848108
 54      -0.000078142827
 55       0.000398085889
 56       0.000103034108
 57      -0.000102621580
 58      -0.001027430870
 59      -0.011153039196
 60       0.000563821252
 61       0.000062707875
 62       0.000284768512
 63      -0.015242670280
 64       0.001352960722
 65      -0.007013511332
 66      -0.000105420922
 67       0.000695539320
 68       0.000021580284
 69       0.000880691419
 70       0.000227755391
 71       0.000011402017
 72      -0.000319319260
 73       0.003436067841
 74       0.000208314454
 75      -0.000150456117
 76       0.000066371229
 77       0.000476619243
 78       0.001738124428
 79       0.000695733314
 80      -0.000014840307
 81      -0.000081360544
 82      -0.000207844100
 83       0.000086844309
 84      -0.000338493389
 85      -0.000055523423
 86      -0.001401194181
 87       0.000119572908
 88      -0.000208363516
 89      -0.000001620764
 90      -0.000287625591
 91      -0.000734722118
 92       0.000074332002
 93       0.000052251928
 94       0.000042546794
 95       0.000157289217
 96       0.000078451950
 97      -0.000060156360
 98       0.000014830581
 99      -0.000026488711
100      -0.000228467489
101      -0.000194755589
102       0.000039582360
103      -0.000059839646
104       0.000001892057
105      -0.000261797095
106      -0.006468955972
107       0.000044694795
108       0.000131892455
109       0.000031091183
110       0.686290108806
111      -0.033563953868
112       0.033186336263
113       0.000335200391
114      -0.002774284246
115      -0.000393594213
116      -0.011000321917
117      -0.000458304659
118      -0.005341754258
119       0.001170016069
120      -0.000860870878
121       0.000755844913
122      -0.000480311049
123       0.002335281736
124      -0.710744287713
125       0.034567187571
126      -0.033897841326
127       0.002573149465
128       0.000101852706
129       0.001235184014
130      -0.001121599906
131       0.012216316163
132       0.001843088313
133      -0.001280244976
134       0.000528015910
135      -0.000652085115
136      -0.000232042014
137      -0.002427145194
138       0.000111522208
139       0.000990055300
140       0.011501970555
141       0.000048449602
142      -0.000666103597
143      -0.000105314265
144      -0.003788165660
145       0.016628527118
146       0.001450250419
147       0.000409654624
148       0.000168688276
149      -0.000318049560
150       0.001042253719
151       0.000079778684
152      -0.000013331637
153       0.000339159426
154      -0.003325994094
155       0.000164188480
156      -0.000204141334
157       0.000034031392
158      -0.001708384390
159      -0.000771872671
160      -0.000825264481
161      -0.000015500437
162       0.000088579691
163       0.000173472402
164      -0.000035210721
165       0.000372236952
166       0.000013929657
167      -0.000636984751
168       0.004774894788
169       0.000110641564
170      -0.000109092726
171       0.000015939317
172      -0.002625598595
173       0.001956000303
174      -0.000732911441
175      -0.000128705721
176       0.000081513726
177       0.000066419612
178      -0.000069309336
179      -0.000003022371
180       0.000014051953
181      -0.000086712073
182      -0.003738629004
183       0.000019258382
184      -0.000080543120
185      -0.000014464392
186       0.000743460745
187      -0.002017600071
188      -0.000076406020
189      -0.000004866632
190       0.000017634243
191       0.000006940728
192       0.000020057889
193       0.000009376349
194       0.000003982173
195      -0.000504058824
196       0.004124321352
197      -0.000068676051
198      -0.000096085021
199      -0.000063026052
200       0.000678512152
201       0.002006878661
202       0.000741800484
203      -0.000121766983
204       0.000092030776
205      -0.000001688451
206      -0.000002023557
207      -0.000124227384
208      -0.000061165407
209       0.000749418308
210      -0.003244260813
211      -0.000050232004
212      -0.000154835810
213      -0.000045994013
214       0.004789323697
215       0.000423789002
216       0.002360159028
217      -0.000040948556
218       0.000279402759
219      -0.000037118079
220       0.000377218450
221       0.000004861900
222       0.000259655121
223       0.006515821613
224      -0.000106613886
225      -0.000058405524
226      -0.000078986382
227       0.000054830420
228       0.001425739193
229       0.000218077279
230      -0.000093827811
231       0.000066968914
232       0.000293021997
233       0.000748625706
234      -0.000036113597
235      -0.000089224979
236      -0.000037704312
237      -0.000163644255
238      -0.000084687657
239      -0.000024915037
240       0.000064757401
241       0.000000028207
242       0.000241519541
243       0.000214227542
244       0.000061420463
245      -0.000031844657
246       0.000018027499
 Sym=     1a
 Ene= -1.02296940241757E+01
 Spin= Alpha
 Occup= 2.000000
  1      -0.000029273975
  2       0.000983841301
  3       0.007669480346
  4       0.000013496692
  5      -0.000224058526
  6      -0.000059922913
  7       0.002784433473
  8       0.002012676538
  9       0.001808212745
 10       0.000177029951
 11      -0.000149027797
 12      -0.000035273843
 13      -0.000013376311
 14       0.000129908165
 15       0.000529726396
 16       0.001097203072
 17      -0.000866154999
 18       0.000283422442
 19       0.000005180696
 20       0.000120954566
 21      -0.002069472712
 22       0.000828439996
 23      -0.000751249183
 24       0.000070179108
 25      -0.000046924722
 26      -0.000032638842
 27       0.000026823000
 28       0.000022078047
 29      -0.000116838842
 30       0.000624024383
 31       0.013135389364
 32       0.000133680808
 33       0.000123568120
 34       0.000077837542
 35       0.004314135816
 36      -0.001136965607
 37       0.001745818759
 38       0.000104775429
 39      -0.000105290999
 40      -0.000070637134
 41       0.000030961955
 42      -0.000044516496
 43      -0.004999578534
 44       0.001843014496
 45      -0.029176051602
 46       0.000692671747
 47       0.001100746244
 48       0.000535528534
 49       0.005411182026
 50      -0.010230553041
 51       0.000410367322
 52      -0.000303063829
 53       0.000462049537
 54       0.000615280960
 55      -0.000218991608
 56       0.000833911116
 57      -0.733656882925
 58      -0.038150143399
 59       0.022682008660
 60      -0.000361327066
 61       0.000138102270
 62      -0.000224905818
 63      -0.025716159246
 64      -0.002353318818
 65      -0.012395974104
 66       0.001164006347
 67      -0.001408323591
 68      -0.000417176578
 69      -0.000301465335
 70       0.000311128635
 71      -0.004806340003
 72       0.002357042166
 73      -0.015532120040
 74       0.000830607913
 75      -0.001483715195
 76       0.000021995456
 77       0.006796938605
 78       0.002777143826
 79       0.003807021128
 80      -0.000648509045
 81       0.000057724952
 82      -0.000033560912
 83      -0.000494828746
 84      -0.000915162789
 85      -0.000461646498
 86      -0.000495903588
 87      -0.000141983430
 88       0.000233401878
 89      -0.000016421288
 90      -0.000516902884
 91      -0.001431073200
 92      -0.000115438258
 93      -0.000038988889
 94      -0.000070628590
 95      -0.000380024026
 96      -0.000798572129
 97      -0.000027199895
 98      -0.000026812554
 99      -0.000020631918
100      -0.000312907451
101      -0.001040898268
102      -0.000168592731
103       0.000110753517
104      -0.000056897308
105      -0.000752290404
106      -0.000762266644
107      -0.000129335380
108      -0.000232710760
109      -0.000107428887
110       0.000011617187
111      -0.001751390061
112       0.002489186166
113      -0.000076918721
114       0.000013469640
115      -0.000057352153
116      -0.021182591287
117       0.009001397221
118      -0.008430670006
119      -0.000359701527
120       0.001124045625
121      -0.000042795064
122       0.001196877390
123      -0.000065494932
124       0.000007805671
125       0.001790391991
126      -0.001072377437
127       0.000008033546
128       0.000136697813
129       0.000009849503
130      -0.010696608736
131       0.020993897333
132      -0.001064064412
133       0.000722542512
134       0.000052482951
135      -0.000299519428
136       0.001250059910
137       0.000381857778
138       0.661555048520
139       0.034677815977
140      -0.020196724609
141      -0.000153440869
142       0.000474309440
143      -0.000052196776
144      -0.001561136647
145       0.025838548806
146       0.004603708223
147      -0.001282255350
148       0.000823304177
149       0.000460388592
150      -0.000652455390
151      -0.000379918167
152       0.004342188808
153      -0.002125978988
154       0.013986233979
155       0.001349846897
156      -0.000581488382
157       0.000453676775
158      -0.001364270782
159      -0.007066102856
160      -0.002010531644
161       0.000436556338
162      -0.000498531119
163       0.000195619846
164      -0.000556114161
165       0.000675697926
166       0.000029982232
167      -0.000899048432
168      -0.007019196546
169       0.000194592590
170       0.000025530270
171       0.000077138121
172      -0.001302498999
173      -0.002970925659
174      -0.001125345194
175      -0.000176435592
176       0.000112505253
177       0.000028365284
178      -0.000024722594
179      -0.000119706036
180      -0.000474106382
181      -0.001002512390
182       0.000947796473
183       0.000036781274
184      -0.000274048963
185      -0.000050501468
186      -0.000941393297
187       0.001988565714
188       0.000007541352
189      -0.000061416891
190       0.000059367234
191       0.000023038146
192       0.000010703530
193      -0.000014757282
194       0.000114418190
195      -0.000559953115
196      -0.012278860586
197      -0.000075045384
198      -0.000146904210