
                                 *****************
                                 * O   R   C   A *
                                 *****************

                                            #,                                       
                                            ###                                      
                                            ####                                     
                                            #####                                    
                                            ######                                   
                                           ########,                                 
                                     ,,################,,,,,                         
                               ,,#################################,,                 
                          ,,##########################################,,             
                       ,#########################################, ''#####,          
                    ,#############################################,,   '####,        
                  ,##################################################,,,,####,       
                ,###########''''           ''''###############################       
              ,#####''   ,,,,##########,,,,          '''####'''          '####       
            ,##' ,,,,###########################,,,                        '##       
           ' ,,###''''                  '''############,,,                           
         ,,##''                                '''############,,,,        ,,,,,,###''
      ,#''                                            '''#######################'''  
     '                                                          ''''####''''         
             ,#######,   #######,   ,#######,      ##                                
            ,#'     '#,  ##    ##  ,#'     '#,    #''#        ######   ,####,        
            ##       ##  ##   ,#'  ##            #'  '#       #        #'  '#        
            ##       ##  #######   ##           ,######,      #####,   #    #        
            '#,     ,#'  ##    ##  '#,     ,#' ,#      #,         ##   #,  ,#        
             '#######'   ##     ##  '#######'  #'      '#     #####' # '####'        



                  #######################################################
                  #                        -***-                        #
                  #          Department of theory and spectroscopy      #
                  #    Directorship and core code : Frank Neese         #
                  #        Max Planck Institute fuer Kohlenforschung    #
                  #                Kaiser Wilhelm Platz 1               #
                  #                 D-45470 Muelheim/Ruhr               #
                  #                      Germany                        #
                  #                                                     #
                  #                  All rights reserved                #
                  #                        -***-                        #
                  #######################################################


                         Program Version 5.0.3 -  RELEASE  -


 With contributions from (in alphabetic order):
   Daniel Aravena         : Magnetic Suceptibility
   Michael Atanasov       : Ab Initio Ligand Field Theory (pilot matlab implementation)
   Alexander A. Auer      : GIAO ZORA, VPT2 properties, NMR spectrum
   Ute Becker             : Parallelization
   Giovanni Bistoni       : ED, misc. LED, open-shell LED, HFLD
   Martin Brehm           : Molecular dynamics
   Dmytro Bykov           : SCF Hessian
   Vijay G. Chilkuri      : MRCI spin determinant printing, contributions to CSF-ICE
   Dipayan Datta          : RHF DLPNO-CCSD density
   Achintya Kumar Dutta   : EOM-CC, STEOM-CC
   Dmitry Ganyushin       : Spin-Orbit,Spin-Spin,Magnetic field MRCI
   Miquel Garcia          : C-PCM and meta-GGA Hessian, CC/C-PCM, Gaussian charge scheme
   Yang Guo               : DLPNO-NEVPT2, F12-NEVPT2, CIM, IAO-localization
   Andreas Hansen         : Spin unrestricted coupled pair/coupled cluster methods
   Benjamin Helmich-Paris : MC-RPA, TRAH-SCF, COSX integrals
   Lee Huntington         : MR-EOM, pCC
   Robert Izsak           : Overlap fitted RIJCOSX, COSX-SCS-MP3, EOM
   Marcus Kettner         : VPT2
   Christian Kollmar      : KDIIS, OOCD, Brueckner-CCSD(T), CCSD density, CASPT2, CASPT2-K
   Simone Kossmann        : Meta GGA functionals, TD-DFT gradient, OOMP2, MP2 Hessian
   Martin Krupicka        : Initial AUTO-CI
   Lucas Lang             : DCDCAS
   Marvin Lechner         : AUTO-CI (C++ implementation), FIC-MRCC
   Dagmar Lenk            : GEPOL surface, SMD
   Dimitrios Liakos       : Extrapolation schemes; Compound Job, initial MDCI parallelization
   Dimitrios Manganas     : Further ROCIS development; embedding schemes
   Dimitrios Pantazis     : SARC Basis sets
   Anastasios Papadopoulos: AUTO-CI, single reference methods and gradients
   Taras Petrenko         : DFT Hessian,TD-DFT gradient, ASA, ECA, R-Raman, ABS, FL, XAS/XES, NRVS
   Peter Pinski           : DLPNO-MP2, DLPNO-MP2 Gradient
   Christoph Reimann      : Effective Core Potentials
   Marius Retegan         : Local ZFS, SOC
   Christoph Riplinger    : Optimizer, TS searches, QM/MM, DLPNO-CCSD(T), (RO)-DLPNO pert. Triples
   Tobias Risthaus        : Range-separated hybrids, TD-DFT gradient, RPA, STAB
   Michael Roemelt        : Original ROCIS implementation
   Masaaki Saitow         : Open-shell DLPNO-CCSD energy and density
   Barbara Sandhoefer     : DKH picture change effects
   Avijit Sen             : IP-ROCIS
   Kantharuban Sivalingam : CASSCF convergence, NEVPT2, FIC-MRCI
   Bernardo de Souza      : ESD, SOC TD-DFT
   Georgi Stoychev        : AutoAux, RI-MP2 NMR, DLPNO-MP2 response
   Willem Van den Heuvel  : Paramagnetic NMR
   Boris Wezisla          : Elementary symmetry handling
   Frank Wennmohs         : Technical directorship


 We gratefully acknowledge several colleagues who have allowed us to
 interface, adapt or use parts of their codes:
   Stefan Grimme, W. Hujo, H. Kruse, P. Pracht,  : VdW corrections, initial TS optimization,
                  C. Bannwarth, S. Ehlert          DFT functionals, gCP, sTDA/sTD-DF
   Ed Valeev, F. Pavosevic, A. Kumar             : LibInt (2-el integral package), F12 methods
   Garnet Chan, S. Sharma, J. Yang, R. Olivares  : DMRG
   Ulf Ekstrom                                   : XCFun DFT Library
   Mihaly Kallay                                 : mrcc  (arbitrary order and MRCC methods)
   Jiri Pittner, Ondrej Demel                    : Mk-CCSD
   Frank Weinhold                                : gennbo (NPA and NBO analysis)
   Christopher J. Cramer and Donald G. Truhlar   : smd solvation model
   Lars Goerigk                                  : TD-DFT with DH, B97 family of functionals
   V. Asgeirsson, H. Jonsson                     : NEB implementation
   FAccTs GmbH                                   : IRC, NEB, NEB-TS, DLPNO-Multilevel, CI-OPT
                                                   MM, QMMM, 2- and 3-layer-ONIOM, Crystal-QMMM,
                                                   LR-CPCM, SF, NACMEs, symmetry and pop. for TD-DFT,
                                                   nearIR, NL-DFT gradient (VV10), updates on ESD,
                                                   ML-optimized integration grids
   S Lehtola, MJT Oliveira, MAL Marques          : LibXC Library
   Liviu Ungur et al                             : ANISO software


 Your calculation uses the libint2 library for the computation of 2-el integrals
 For citations please refer to: http://libint.valeyev.net

 Your ORCA version has been built with support for libXC version: 5.1.0
 For citations please refer to: https://tddft.org/programs/libxc/

 This ORCA versions uses:
   CBLAS   interface :  Fast vector & matrix operations
   LAPACKE interface :  Fast linear algebra routines
   SCALAPACK package :  Parallel linear algebra routines
   Shared memory     :  Shared parallel matrices
   BLAS/LAPACK       :  OpenBLAS 0.3.15  USE64BITINT DYNAMIC_ARCH NO_AFFINITY Zen SINGLE_THREADED
        Core in use  :  Zen
   Copyright (c) 2011-2014, The OpenBLAS Project


Your calculation utilizes the atom-pairwise dispersion correction
with the Becke-Johnson damping scheme (D3BJ)
Cite in your paper:
S.Grimme, S.Ehrlich, L.Goerigk, J Comput Chem, (2011), 32, 1456–1465 
S.Grimme, J.Antony, S.Ehrlich and H.Krieg, J.Chem.Phys., 132, (2010), 154104 
   

================================================================================

----- Orbital basis set information -----
Your calculation utilizes the basis: def2-SVP
   F. Weigend and R. Ahlrichs, Phys. Chem. Chem. Phys. 7, 3297 (2005).

----- AuxJ basis set information -----
Your calculation utilizes the auxiliary basis: def2/J
   F. Weigend, Phys. Chem. Chem. Phys. 8, 1057 (2006).

================================================================================
                                        WARNINGS
                       Please study these warnings very carefully!
================================================================================


INFO   : the flag for use of the SHARK integral package has been found!

================================================================================
                                       INPUT FILE
================================================================================
NAME = Z_planar_azobenzene.inp
|  1> ! B3LYP D3BJ RIJCOSX def2/J def2-SVP LargePrint SP
|  2> %Pal NProcs 1 end
|  3> %MaxCore 4000
|  4> %SCF
|  5>     AutoTRAH    True
|  6>     CNVDamp     True
|  7>     CNVZerner   False
|  8>     end
|  9> %method
| 10>     FrozenCore FC_ELECTRONS
| 11>     end
| 12> *xyz 0 1
| 13> C            -9.35398000     5.14839000    -0.64610000
| 14> C           -10.08367000     4.10476000    -1.22028000
| 15> C            -9.54638000     2.81593000    -1.25812000
| 16> C            -8.27568000     2.56966000    -0.72902000
| 17> C            -7.52431000     3.62126000    -0.16470000
| 18> C            -8.08315000     4.90595000    -0.11550000
| 19> H            -7.52828000     5.72208000     0.33032000
| 20> H            -9.77384000     6.14533000    -0.60987000
| 21> H           -11.06800000     4.29316000    -1.62901000
| 22> H           -10.11693000     2.00557000    -1.69322000
| 23> H            -7.89076000     1.55944000    -0.75521000
| 24> N            -6.23390000     3.41931000     0.41063000
| 25> N            -5.34344000     2.57191000     0.66870000
| 26> C            -4.97613000     1.19602000     0.57402000
| 27> C            -3.71081000     0.80979000     1.03764000
| 28> C            -3.29722000    -0.52283000     0.94603000
| 29> C            -4.14103000    -1.48028000     0.37808000
| 30> C            -5.39661000    -1.10493000    -0.10548000
| 31> C            -5.81394000     0.22659000    -0.01517000
| 32> H            -6.78332000     0.49353000    -0.41323000
| 33> H            -3.04668000     1.54391000     1.47663000
| 34> H            -2.32123000    -0.81252000     1.31348000
| 35> H            -3.81914000    -2.51112000     0.30599000
| 36> H            -6.04542000    -1.84527000    -0.55545000
| 37> *
| 38> 
| 39>                          ****END OF INPUT****
================================================================================

                       ****************************
                       * Single Point Calculation *
                       ****************************

---------------------------------
CARTESIAN COORDINATES (ANGSTROEM)
---------------------------------
  C     -9.353980    5.148390   -0.646100
  C    -10.083670    4.104760   -1.220280
  C     -9.546380    2.815930   -1.258120
  C     -8.275680    2.569660   -0.729020
  C     -7.524310    3.621260   -0.164700
  C     -8.083150    4.905950   -0.115500
  H     -7.528280    5.722080    0.330320
  H     -9.773840    6.145330   -0.609870
  H    -11.068000    4.293160   -1.629010
  H    -10.116930    2.005570   -1.693220
  H     -7.890760    1.559440   -0.755210
  N     -6.233900    3.419310    0.410630
  N     -5.343440    2.571910    0.668700
  C     -4.976130    1.196020    0.574020
  C     -3.710810    0.809790    1.037640
  C     -3.297220   -0.522830    0.946030
  C     -4.141030   -1.480280    0.378080
  C     -5.396610   -1.104930   -0.105480
  C     -5.813940    0.226590   -0.015170
  H     -6.783320    0.493530   -0.413230
  H     -3.046680    1.543910    1.476630
  H     -2.321230   -0.812520    1.313480
  H     -3.819140   -2.511120    0.305990
  H     -6.045420   -1.845270   -0.555450

----------------------------
CARTESIAN COORDINATES (A.U.)
----------------------------
  NO LB      ZA    FRAG     MASS         X           Y           Z
   0 C     6.0000    0    12.011  -17.676460    9.729047   -1.220952
   1 C     6.0000    0    12.011  -19.055375    7.756872   -2.305995
   2 C     6.0000    0    12.011  -18.040044    5.321337   -2.377502
   3 C     6.0000    0    12.011  -15.638769    4.855954   -1.377648
   4 C     6.0000    0    12.011  -14.218885    6.843190   -0.311238
   5 C     6.0000    0    12.011  -15.274940    9.270902   -0.218263
   6 H     1.0000    0     1.008  -14.226387   10.813164    0.624214
   7 H     1.0000    0     1.008  -18.469881   11.612991   -1.152487
   8 H     1.0000    0     1.008  -20.915489    8.112897   -3.078383
   9 H     1.0000    0     1.008  -19.118227    3.789978   -3.199722
  10 H     1.0000    0     1.008  -14.911375    2.946915   -1.427140
  11 N     7.0000    0    14.007  -11.780364    6.461559    0.775978
  12 N     7.0000    0    14.007  -10.097638    4.860206    1.263660
  13 C     6.0000    0    12.011   -9.403523    2.260150    1.084741
  14 C     6.0000    0    12.011   -7.012415    1.530281    1.960855
  15 C     6.0000    0    12.011   -6.230843   -0.988006    1.787738
  16 C     6.0000    0    12.011   -7.825413   -2.797324    0.714468
  17 C     6.0000    0    12.011  -10.198115   -2.088015   -0.199328
  18 C     6.0000    0    12.011  -10.986754    0.428193   -0.028667
  19 H     1.0000    0     1.008  -12.818617    0.932637   -0.780892
  20 H     1.0000    0     1.008   -5.757391    2.917567    2.790426
  21 H     1.0000    0     1.008   -4.386489   -1.535440    2.482117
  22 H     1.0000    0     1.008   -7.217129   -4.745329    0.578237
  23 H     1.0000    0     1.008  -11.424188   -3.487055   -1.049648

--------------------------------
INTERNAL COORDINATES (ANGSTROEM)
--------------------------------
 C      0   0   0     0.000000000000     0.00000000     0.00000000
 C      1   0   0     1.396887162730     0.00000000     0.00000000
 C      2   1   0     1.396851881410   119.96987047     0.00000000
 C      3   2   1     1.398311200306   120.11850711   359.63246342
 C      4   3   2     1.410275327480   120.28114533   359.46080293
 C      1   2   3     1.398328431557   120.07795566     0.34291516
 H      6   1   2     1.082914754817   119.42058417   180.21975689
 H      1   2   3     1.082351327481   119.95231699   180.48534752
 H      2   1   3     1.082340206127   120.01605590   179.54240076
 H      3   2   1     1.082368995352   119.92892028   179.31714803
 H      4   3   2     1.081385116829   118.60912601   178.91892777
 N      5   4   3     1.427216304384   122.51402644   178.81284458
 N     12   5   4     1.256027824732   145.01310937     0.00000000
 C     13  12   5     1.427219054876   145.00758119     0.00000000
 C     14  13  12     1.401838728135   118.42224001   177.38070212
 C     15  14  13     1.398329412049   120.52226244   181.05046132
 C     16  15  14     1.396886903475   120.07798422     0.59473514
 C     17  16  15     1.396853260905   119.96972602     0.34320466
 C     18  17  16     1.398308168967   120.11832614   359.63171099
 H     19  18  17     1.081390915257   118.60863391   178.91907264
 H     15  14  13     1.082918764913   120.05595716     1.42752544
 H     16  15  14     1.082356816720   119.96934485   180.45210110
 H     17  16  15     1.082331393705   120.01575452   179.88515869
 H     18  17  16     1.082372732750   119.92895225   179.31741586

---------------------------
INTERNAL COORDINATES (A.U.)
---------------------------
 C      0   0   0     0.000000000000     0.00000000     0.00000000
 C      1   0   0     2.639734177550     0.00000000     0.00000000
 C      2   1   0     2.639667505518   119.96987047     0.00000000
 C      3   2   1     2.642425218572   120.11850711   359.63246342
 C      4   3   2     2.665034142364   120.28114533   359.46080293
 C      1   2   3     2.642457780918   120.07795566     0.34291516
 H      6   1   2     2.046412312986   119.42058417   180.21975689
 H      1   2   3     2.045347589625   119.95231699   180.48534752
 H      2   1   3     2.045326573313   120.01605590   179.54240076
 H      3   2   1     2.045380977063   119.92892028   179.31714803
 H      4   3   2     2.043521716106   118.60912601   178.91892777
 N      5   4   3     2.697047949153   122.51402644   178.81284458
 N     12   5   4     2.373548605328   145.01310937     0.00000000
 C     13  12   5     2.697053146829   145.00758119     0.00000000
 C     14  13  12     2.649091280100   118.42224001   177.38070212
 C     15  14  13     2.642459633779   120.52226244   181.05046132
 C     16  15  14     2.639733687629   120.07798422     0.59473514
 C     17  16  15     2.639670112385   119.96972602     0.34320466
 C     18  17  16     2.642419490173   120.11832614   359.63171099
 H     19  18  17     2.043532673546   118.60863391   178.91907264
 H     15  14  13     2.046419890969   120.05595716     1.42752544
 H     16  15  14     2.045357962783   119.96934485   180.45210110
 H     17  16  15     2.045309920248   120.01575452   179.88515869
 H     18  17  16     2.045388039721   119.92895225   179.31741586

---------------------
BASIS SET INFORMATION
---------------------
There are 3 groups of distinct atoms

 Group   1 Type C   : 7s4p1d contracted to 3s2p1d pattern {511/31/1}
 Group   2 Type H   : 4s1p contracted to 2s1p pattern {31/1}
 Group   3 Type N   : 7s4p1d contracted to 3s2p1d pattern {511/31/1}

Atom   0C    basis set group =>   1
Atom   1C    basis set group =>   1
Atom   2C    basis set group =>   1
Atom   3C    basis set group =>   1
Atom   4C    basis set group =>   1
Atom   5C    basis set group =>   1
Atom   6H    basis set group =>   2
Atom   7H    basis set group =>   2
Atom   8H    basis set group =>   2
Atom   9H    basis set group =>   2
Atom  10H    basis set group =>   2
Atom  11N    basis set group =>   3
Atom  12N    basis set group =>   3
Atom  13C    basis set group =>   1
Atom  14C    basis set group =>   1
Atom  15C    basis set group =>   1
Atom  16C    basis set group =>   1
Atom  17C    basis set group =>   1
Atom  18C    basis set group =>   1
Atom  19H    basis set group =>   2
Atom  20H    basis set group =>   2
Atom  21H    basis set group =>   2
Atom  22H    basis set group =>   2
Atom  23H    basis set group =>   2

-------------------------
BASIS SET IN INPUT FORMAT
-------------------------

 # Basis set for element : H 
 NewGTO H 
 S 3 
   1      13.0107010000      0.0334854848
   2       1.9622572000      0.2347218709
   3       0.4445379600      0.8137702853
 S 1 
   1       0.1219496200      1.0000000000
 P 1 
   1       0.8000000000      1.0000000000
  end;

 # Basis set for element : C 
 NewGTO C 
 S 5 
   1    1238.4016938000      0.0055173650
   2     186.2900499200      0.0410888285
   3      42.2511763460      0.1822538213
   4      11.6765579320      0.4682845944
   5       3.5930506482      0.4457581734
 S 1 
   1       0.4024514736      1.0000000000
 S 1 
   1       0.1309018267      1.0000000000
 P 3 
   1       9.4680970621      0.0568883320
   2       2.0103545142      0.3129405934
   3       0.5477100471      0.7606501651
 P 1 
   1       0.1526861379      1.0000000000
 D 1 
   1       0.8000000000      1.0000000000
  end;

 # Basis set for element : N 
 NewGTO N 
 S 5 
   1    1712.8415853000     -0.0054477995
   2     257.6481267700     -0.0406271746
   3      58.4582458530     -0.1811196225
   4      16.1983679050     -0.4684397556
   5       5.0052600809     -0.4461684629
 S 1 
   1       0.5873185657      1.0000000000
 S 1 
   1       0.1876459225      1.0000000000
 P 3 
   1      13.5714702330     -0.0588481170
   2       2.9257372874     -0.3202462476
   3       0.7992775075     -0.7532822652
 P 1 
   1       0.2195434803      1.0000000000
 D 1 
   1       1.0000000000      1.0000000000
  end;

---------------------------------
AUXILIARY/J BASIS SET INFORMATION
---------------------------------
There are 3 groups of distinct atoms

 Group   1 Type C   : 12s5p4d2f1g contracted to 6s4p3d1f1g pattern {711111/2111/211/2/1}
 Group   2 Type H   : 5s2p1d contracted to 3s1p1d pattern {311/2/1}
 Group   3 Type N   : 12s5p4d2f1g contracted to 6s4p3d1f1g pattern {711111/2111/211/2/1}

Atom   0C    basis set group =>   1
Atom   1C    basis set group =>   1
Atom   2C    basis set group =>   1
Atom   3C    basis set group =>   1
Atom   4C    basis set group =>   1
Atom   5C    basis set group =>   1
Atom   6H    basis set group =>   2
Atom   7H    basis set group =>   2
Atom   8H    basis set group =>   2
Atom   9H    basis set group =>   2
Atom  10H    basis set group =>   2
Atom  11N    basis set group =>   3
Atom  12N    basis set group =>   3
Atom  13C    basis set group =>   1
Atom  14C    basis set group =>   1
Atom  15C    basis set group =>   1
Atom  16C    basis set group =>   1
Atom  17C    basis set group =>   1
Atom  18C    basis set group =>   1
Atom  19H    basis set group =>   2
Atom  20H    basis set group =>   2
Atom  21H    basis set group =>   2
Atom  22H    basis set group =>   2
Atom  23H    basis set group =>   2

-------------------------------------
AUXILIARY/J BASIS SET IN INPUT FORMAT
-------------------------------------

 # Auxiliary/J basis set for element : H 
 NewAuxJGTO H 
 S 3 
   1      15.6752927000      0.1007184237
   2       3.6063578000      0.3404257499
   3       1.2080016000      0.6491996172
 S 1 
   1       0.4726794000      1.0000000000
 S 1 
   1       0.2018100000      1.0000000000
 P 2 
   1       2.0281365000      0.5596620919
   2       0.5358730000      0.5596620919
 D 1 
   1       2.2165124000      1.0000000000
  end;

 # Auxiliary/J basis set for element : C 
 NewAuxJGTO C 
 S 7 
   1    1861.0916331000      0.0134602335
   2     642.9939764000      0.0299160374
   3     235.1105725000      0.1008649584
   4      90.7028894000      0.2370970548
   5      36.7794552000      0.3924037254
   6      15.6046273000      0.3195862154
   7       6.8907294000      0.0530104441
 S 1 
   1       3.1478850000     -1.0000000000
 S 1 
   1       1.4777287000      1.0000000000
 S 1 
   1       0.7076466000      1.0000000000
 S 1 
   1       0.3430122000      1.0000000000
 S 1 
   1       0.1669453000      1.0000000000
 P 2 
   1      13.5472892000     -0.6769313712
   2       5.4669419000     -0.3779500978
 P 1 
   1       2.1751721000      1.0000000000
 P 1 
   1       0.8582194000      1.0000000000
 P 1 
   1       0.3376720000      1.0000000000
 D 2 
   1       5.9287253000     -0.3533329857
   2       1.9809209000     -0.7456525731
 D 1 
   1       0.8055417000     -1.0000000000
 D 1 
   1       0.3531244000     -1.0000000000
 F 2 
   1       1.6755626000      0.6311076882
   2       0.5997536000      0.4968166032
 G 1 
   1       1.0024600000     -1.0000000000
  end;

 # Auxiliary/J basis set for element : N 
 NewAuxJGTO N 
 S 7 
   1    2542.9401785000      0.0128431329
   2    1029.5472946000      0.0206655120
   3     424.9053546000      0.0652200677
   4     178.4573708000      0.1617388940
   5      76.1362742000      0.3094256941
   6      32.9338653000      0.3918849307
   7      14.4155436000      0.1822470660
 S 1 
   1       6.3718891000     -1.0000000000
 S 1 
   1       2.8381742000      1.0000000000
 S 1 
   1       1.2711793000      1.0000000000
 S 1 
   1       0.5712407000      1.0000000000
 S 1 
   1       0.2569887000      1.0000000000
 P 2 
   1      17.8975990000     -1.0974070137
   2       6.5346319000      0.1380055963
 P 1 
   1       2.3523645000      1.0000000000
 P 1 
   1       0.8397377000      1.0000000000
 P 1 
   1       0.2989335000      1.0000000000
 D 2 
   1       7.6909870000      0.1770780943
   2       2.3044972000      0.8918319220
 D 1 
   1       0.8403987000      1.0000000000
 D 1 
   1       0.3303797000      1.0000000000
 F 2 
   1       2.3331076000      0.6223178877
   2       0.8446137000      0.5036714203
 G 1 
   1       1.4037700000     -1.0000000000
  end;

------------------------------------------------------------------------------
                           ORCA GTO INTEGRAL CALCULATION
                           -- RI-GTO INTEGRALS CHOSEN --
------------------------------------------------------------------------------
------------------------------------------------------------------------------
                   ___                                                        
                  /   \      - P O W E R E D   B Y -                         
                 /     \                                                     
                 |  |  |   _    _      __       _____    __    __             
                 |  |  |  | |  | |    /  \     |  _  \  |  |  /  |          
                  \  \/   | |  | |   /    \    | | | |  |  | /  /          
                 / \  \   | |__| |  /  /\  \   | |_| |  |  |/  /          
                |  |  |   |  __  | /  /__\  \  |    /   |      \           
                |  |  |   | |  | | |   __   |  |    \   |  |\   \          
                \     /   | |  | | |  |  |  |  | |\  \  |  | \   \       
                 \___/    |_|  |_| |__|  |__|  |_| \__\ |__|  \__/        
                                                                              
                      - O R C A' S   B I G   F R I E N D -                    
                                      &                                       
                       - I N T E G R A L  F E E D E R -                       
                                                                              
 v1 FN, 2020, v2 2021                                                         
------------------------------------------------------------------------------


Reading SHARK input file Z_planar_azobenzene.SHARKINP.tmp ... SHARK General Contraction Test:  Segmented basis detected
   -> Pre-screening matrix *NOT* found on disk - recalculating with NShells=114
   -> Leaving CheckPreScreeningMatrix
ok
----------------------
SHARK INTEGRAL PACKAGE
----------------------

Number of atoms                             ...     24
Number of basis functions                   ...    246
Number of shells                            ...    114
Maximum angular momentum                    ...      2
Integral batch strategy                     ... SHARK/LIBINT Hybrid
RI-J (if used) integral strategy            ... SPLIT-RIJ (Revised 2003 algorithm where possible)
Printlevel                                  ...      2
Contraction scheme used                     ... SEGMENTED contraction
Coulomb Range Separation                    ... NOT USED
Exchange Range Separation                   ... NOT USED
Finite Nucleus Model                        ... NOT USED
Auxiliary Coulomb fitting basis             ... AVAILABLE
   # of basis functions in Aux-J            ...    796
   # of shells in Aux-J                     ...    260
   Maximum angular momentum in Aux-J        ...      4
Auxiliary J/K fitting basis                 ... NOT available
Auxiliary Correlation fitting basis         ... NOT available
Auxiliary 'external' fitting basis          ... NOT available
Integral threshold                          ...     1.000000e-10
Primitive cut-off                           ...     1.000000e-11
Primitive pair pre-selection threshold      ...     1.000000e-11

Calculating pre-screening integrals         ... done (  0.0 sec) Dimension = 114
Organizing shell pair data                  ... done (  0.0 sec)
Shell pair information
Total number of shell pairs                 ...      6555
Shell pairs after pre-screening             ...      5124
Total number of primitive shell pairs       ...     24083
Primitive shell pairs kept                  ...     12780
          la=0 lb=0:   1552 shell pairs
          la=1 lb=0:   1870 shell pairs
          la=1 lb=1:    599 shell pairs
          la=2 lb=0:    640 shell pairs
          la=2 lb=1:    394 shell pairs
          la=2 lb=2:     69 shell pairs

Calculating one electron integrals          ... done (  0.0 sec)
Calculating RI/J V-Matrix + Cholesky decomp.... done (  0.0 sec)
Calculating Nuclear repulsion               ... done (  0.0 sec) ENN=    749.650310941526 Eh

SHARK setup successfully completed in   0.3 seconds

Maximum memory used throughout the entire GTOINT-calculation: 37.5 MB
-------------------------------------------------------------------------------
                                 ORCA SCF
-------------------------------------------------------------------------------

------------
SCF SETTINGS
------------
Hamiltonian:
 Density Functional     Method          .... DFT(GTOs)
 Exchange Functional    Exchange        .... B88
   X-Alpha parameter    XAlpha          ....  0.666667
   Becke's b parameter  XBeta           ....  0.004200
 Correlation Functional Correlation     .... LYP
 LDA part of GGA corr.  LDAOpt          .... VWN-5
 Gradients option       PostSCFGGA      .... off
 Hybrid DFT is turned on
   Fraction HF Exchange ScalHFX         ....  0.200000
   Scaling of DF-GGA-X  ScalDFX         ....  0.720000
   Scaling of DF-GGA-C  ScalDFC         ....  0.810000
   Scaling of DF-LDA-C  ScalLDAC        ....  1.000000
   Perturbative correction              ....  0.000000
   Density functional embedding theory  .... OFF
   NL short-range parameter             ....  4.800000
 RI-approximation to the Coulomb term is turned on
   Number of AuxJ basis functions       .... 796
   RIJ-COSX (HFX calculated with COS-X)).... on


General Settings:
 Integral files         IntName         .... Z_planar_azobenzene
 Hartree-Fock type      HFTyp           .... RHF
 Total Charge           Charge          ....    0
 Multiplicity           Mult            ....    1
 Number of Electrons    NEL             ....   96
 Basis Dimension        Dim             ....  246
 Nuclear Repulsion      ENuc            ....    749.6503109415 Eh

Convergence Acceleration:
 DIIS                   CNVDIIS         .... on
   Start iteration      DIISMaxIt       ....    12
   Startup error        DIISStart       ....  0.200000
   # of expansion vecs  DIISMaxEq       ....     5
   Bias factor          DIISBfac        ....   1.050
   Max. coefficient     DIISMaxC        ....  10.000
 Trust-Rad. Augm. Hess. CNVTRAH         .... auto
   Auto Start mean grad. ratio tolernc. ....  1.125000
   Auto Start start iteration           ....    20
   Auto Start num. interpolation iter.  ....    10
   Max. Number of Micro iterations      ....    16
   Max. Number of Macro iterations      .... Maxiter - #DIIS iter
   Number of Davidson start vectors     ....     2
   Converg. threshold I  (grad. norm)   ....   5.000e-05
   Converg. threshold II (energy diff.) ....   1.000e-06
   Grad. Scal. Fac. for Micro threshold ....   0.100
   Minimum threshold for Micro iter.    ....   0.010
   NR start threshold (gradient norm)   ....   0.001
   Initial trust radius                 ....   0.400
   Minimum AH scaling param. (alpha)    ....   1.000
   Maximum AH scaling param. (alpha)    .... 1000.000
   Orbital update algorithm             .... Taylor
   White noise on init. David. guess    .... on
   Maximum white noise                  ....   0.010
   Quad. conv. algorithm                .... NR
 SOSCF                  CNVSOSCF        .... on
   Start iteration      SOSCFMaxIt      ....   150
   Startup grad/error   SOSCFStart      ....  0.003300
 Level Shifting         CNVShift        .... on
   Level shift para.    LevelShift      ....    0.2500
   Turn off err/grad.   ShiftErr        ....    0.0010
 Zerner damping         CNVZerner       .... off
 Static damping         CNVDamp         .... on
   Fraction old density DampFac         ....    0.7000
   Max. Damping (<1)    DampMax         ....    0.9800
   Min. Damping (>=0)   DampMin         ....    0.0000
   Turn off err/grad.   DampErr         ....    0.1000
 Fernandez-Rico         CNVRico         .... off

SCF Procedure:
 Maximum # iterations   MaxIter         ....   125
 SCF integral mode      SCFMode         .... Direct
   Integral package                     .... SHARK and LIBINT hybrid scheme
 Reset frequency        DirectResetFreq ....    20
 Integral Threshold     Thresh          ....  1.000e-10 Eh
 Primitive CutOff       TCut            ....  1.000e-11 Eh

Convergence Tolerance:
 Convergence Check Mode ConvCheckMode   .... Total+1el-Energy
 Convergence forced     ConvForced      .... 0
 Energy Change          TolE            ....  1.000e-06 Eh
 1-El. energy change                    ....  1.000e-03 Eh
 Orbital Gradient       TolG            ....  5.000e-05
 Orbital Rotation angle TolX            ....  5.000e-05
 DIIS Error             TolErr          ....  1.000e-06


Diagonalization of the overlap matrix:
Smallest eigenvalue                        ... 2.726e-04
Time for diagonalization                   ...    0.009 sec
Threshold for overlap eigenvalues          ... 1.000e-08
Number of eigenvalues below threshold      ... 0
Time for construction of square roots      ...    0.003 sec
Total time needed                          ...    0.012 sec

SHARK General Contraction Test:  Segmented basis detected
   -> Pre-screening matrix found on disk - Trying to read with NShells=114
   -> Passing Pre-screening matrix on to SHARK ...ok
   -> Leaving CheckPreScreeningMatrix
----------------------
SHARK INTEGRAL PACKAGE
----------------------

Number of atoms                             ...     24
Number of basis functions                   ...    246
Number of shells                            ...    114
Maximum angular momentum                    ...      2
Integral batch strategy                     ... SHARK/LIBINT Hybrid
RI-J (if used) integral strategy            ... SPLIT-RIJ (Revised 2003 algorithm where possible)
Printlevel                                  ...      2
Contraction scheme used                     ... SEGMENTED contraction
Coulomb Range Separation                    ... NOT USED
Exchange Range Separation                   ... NOT USED
Finite Nucleus Model                        ... NOT USED
Auxiliary Coulomb fitting basis             ... AVAILABLE
   # of basis functions in Aux-J            ...    796
   # of shells in Aux-J                     ...    260
   Maximum angular momentum in Aux-J        ...      4
Auxiliary J/K fitting basis                 ... NOT available
Auxiliary Correlation fitting basis         ... NOT available
Auxiliary 'external' fitting basis          ... NOT available
Integral threshold                          ...     1.000000e-10
Primitive cut-off                           ...     1.000000e-11
Primitive pair pre-selection threshold      ...     1.000000e-11

Time for model grid setup =    0.430 sec

------------------------------
INITIAL GUESS: MODEL POTENTIAL
------------------------------
Loading Hartree-Fock densities                     ... done
Calculating cut-offs                               ... done
Initializing the effective Hamiltonian             ... done
Setting up the integral package (SHARK)            ... done
Starting the Coulomb interaction                   ...     -> Generating integrals - 
    -> L=0 0 :     0.068 sec done=    295928 skipped=     10498 prim-skipped=         0
    -> L=1 0 :     0.105 sec done=    359056 skipped=     11628 prim-skipped=         0
    -> L=1 1 :     0.048 sec done=    116024 skipped=      2408 prim-skipped=         0
    -> L=2 0 :     0.038 sec done=    122702 skipped=      4122 prim-skipped=         0
    -> L=2 1 :     0.037 sec done=     76520 skipped=      2048 prim-skipped=         0
    -> L=2 2 :     0.009 sec done=     13342 skipped=       204 prim-skipped=         0
done (   0.3 sec)
Reading the grid                                   ... done
Mapping shells                                     ... done
Starting the XC term evaluation                    ... done (   0.4 sec)
  promolecular density results
     # of electrons  =     95.992160592
     EX              =    -77.747240773
     EC              =     -3.228278723
     EX+EC           =    -80.975519496
Transforming the Hamiltonian                       ... done (   0.0 sec)
Diagonalizing the Hamiltonian                      ... done (   0.0 sec)
Back transforming the eigenvectors                 ... done (   0.0 sec)
Now organizing SCF variables                       ... done
                      ------------------
                      INITIAL GUESS DONE (   1.1 sec)
                      ------------------
----------------------
INITIAL GUESS ORBITALS
----------------------
                      0         1         2         3         4         5   
                 -14.19528 -14.19509 -10.10092 -10.10091 -10.10069 -10.10068
                   2.00000   2.00000   2.00000   2.00000   2.00000   2.00000
                  --------  --------  --------  --------  --------  --------
  0C   1s        -0.000014 -0.000000 -0.247972 -0.080471  0.242765  0.270348
  0C   2s         0.000678  0.000237 -0.009107 -0.003006  0.012035  0.013381
  0C   3s        -0.005430 -0.004507 -0.008085 -0.001375 -0.004183 -0.003964
  0C   1pz        0.000021  0.000037 -0.000916 -0.000282  0.000194  0.000215
  0C   1px        0.000120  0.000107 -0.001206 -0.000367  0.000267  0.000296
  0C   1py       -0.000100 -0.000040 -0.001569 -0.000493  0.000315  0.000331
  0C   2pz       -0.000529 -0.001188 -0.001858 -0.000772 -0.000368 -0.001394
  0C   2px       -0.002522 -0.003037 -0.004023 -0.001370 -0.002288 -0.004025
  0C   2py        0.002659  0.001084 -0.000090 -0.000569  0.002764  0.001938
  0C   1dz2       0.000111  0.000055 -0.000067 -0.000027 -0.000212 -0.000259
  0C   1dxz      -0.000144 -0.000085  0.000340  0.000118  0.000098  0.000142
  0C   1dyz      -0.000063 -0.000051  0.000657  0.000207 -0.000026 -0.000014
  0C   1dx2y2    -0.000034 -0.000010 -0.000238 -0.000063 -0.000055 -0.000048
  0C   1dxy      -0.000003 -0.000033  0.001095  0.000343 -0.000295 -0.000319
  1C   1s        -0.000014 -0.000011 -0.847865 -0.265869  0.163867  0.169397
  1C   2s         0.000074  0.000031 -0.041396 -0.012964  0.009642  0.010333
  1C   3s         0.003692  0.005435  0.021757  0.006385 -0.011579 -0.013434
  1C   1pz        0.000031  0.000007  0.000196  0.000072 -0.000349 -0.000380
  1C   1px        0.000080  0.000048  0.000610  0.000193  0.000158  0.000220
  1C   1py        0.000004 -0.000047 -0.000308 -0.000048 -0.001923 -0.002186
  1C   2pz        0.000813  0.000514  0.002261  0.000381 -0.000575 -0.001381
  1C   2px        0.001990  0.002335  0.004962  0.001091 -0.000881 -0.001703
  1C   2py       -0.000496 -0.002596 -0.000159 -0.000604 -0.000575 -0.002557
  1C   1dz2       0.000013 -0.000003  0.000997  0.000332 -0.000814 -0.000883
  1C   1dxz       0.000003  0.000008 -0.001290 -0.000409  0.000247  0.000240
  1C   1dyz      -0.000013 -0.000007 -0.000250 -0.000080 -0.000028 -0.000044
  1C   1dx2y2     0.000025  0.000011 -0.000594 -0.000171 -0.000483 -0.000552
  1C   1dxy      -0.000002 -0.000017  0.000331  0.000126 -0.001010 -0.001132
  2C   1s        -0.000003 -0.000017 -0.332661 -0.089780 -0.579019 -0.667379
  2C   2s         0.000482  0.000720 -0.013650 -0.003419 -0.030785 -0.035162
  2C   3s        -0.003876 -0.007395 -0.005555 -0.000229  0.019679  0.025851
  2C   1pz        0.000048  0.000039  0.000005  0.000014 -0.000010  0.000015
  2C   1px        0.000089  0.000045 -0.000928 -0.000263  0.000180  0.000254
  2C   1py        0.000092  0.000121  0.001980  0.000614 -0.000348 -0.000399
  2C   2pz       -0.000918 -0.001553 -0.001226  0.000017  0.001913  0.002642
  2C   2px       -0.001641 -0.001416 -0.004568 -0.000242  0.001742  0.004257
  2C   2py       -0.000842 -0.004203  0.003977  0.000639  0.004941  0.003058
  2C   1dz2       0.000128  0.000123 -0.000316 -0.000141  0.001220  0.001340
  2C   1dxz      -0.000086 -0.000125 -0.000396 -0.000087 -0.000967 -0.001111
  2C   1dyz       0.000006 -0.000003 -0.000179 -0.000043 -0.000600 -0.000702
  2C   1dx2y2     0.000011 -0.000050 -0.000756 -0.000239  0.000475  0.000491
  2C   1dxy       0.000130  0.000096 -0.000916 -0.000303  0.000186  0.000113
  3C   1s         0.000068 -0.000010 -0.014342 -0.004467 -0.034235 -0.034725
  3C   2s        -0.000821 -0.000233  0.001135  0.000315 -0.000158  0.000499
  3C   3s         0.002065  0.011742  0.001131  0.000840 -0.014103 -0.015621
  3C   1pz        0.000074  0.000118 -0.000179 -0.000079 -0.000540 -0.000741
  3C   1px        0.000106  0.000239 -0.000563 -0.000225 -0.001279 -0.001667
  3C   1py        0.000071  0.000023  0.000345  0.000129  0.000170  0.000098
  3C   2pz       -0.001153  0.001816 -0.004697 -0.000067 -0.004381 -0.001189
  3C   2px        0.000117  0.002737 -0.007807  0.000221 -0.006363 -0.001823
  3C   2py       -0.006102  0.002476 -0.005013 -0.000811 -0.006941 -0.001709
  3C   1dz2       0.000178  0.000056 -0.000124 -0.000027 -0.000443 -0.000478
  3C   1dxz       0.000077  0.000224  0.000302  0.000077  0.000647  0.000766
  3C   1dyz      -0.000087  0.000011 -0.000081  0.000003 -0.000161 -0.000085
  3C   1dx2y2     0.000418  0.000408  0.000386  0.000082  0.000628  0.000698
  3C   1dxy       0.000100  0.000179 -0.000131  0.000011 -0.000542 -0.000413
  4C   1s        -0.000118 -0.000266  0.001538  0.000335 -0.000482 -0.000625
  4C   2s        -0.001036  0.001144  0.001312  0.000534 -0.000425 -0.000122
  4C   3s        -0.011043 -0.011224  0.008599  0.001138  0.004991  0.000435
  4C   1pz        0.000327  0.000462 -0.000185 -0.000044  0.000005  0.000045
  4C   1px        0.000651  0.001213 -0.000461 -0.000097 -0.000105 -0.000006
  4C   1py        0.000071 -0.000589  0.000174  0.000017  0.000273  0.000235
  4C   2pz       -0.007617 -0.001266  0.000498  0.000661 -0.003881 -0.001701
  4C   2px       -0.016187 -0.007375  0.003349  0.000706 -0.001517  0.000558
  4C   2py        0.000573  0.010720 -0.005609  0.001459 -0.014731 -0.008899
  4C   1dz2      -0.000121 -0.000170  0.000028  0.000034  0.000029  0.000082
  4C   1dxz       0.000751  0.000538 -0.000055 -0.000032  0.000029 -0.000016
  4C   1dyz       0.000019 -0.000199  0.000010  0.000008  0.000040  0.000007
  4C   1dx2y2     0.000943  0.000781 -0.000090 -0.000014  0.000013  0.000042
  4C   1dxy       0.000231 -0.000336  0.000034  0.000037  0.000168  0.000142
  5C   1s         0.000008  0.000057 -0.009437 -0.007305  0.049005  0.046494
  5C   2s        -0.000277 -0.000601  0.001471  0.000046  0.002448  0.002029
  5C   3s         0.004429 -0.001665  0.006738  0.000183  0.011339  0.010449
  5C   1pz        0.000081  0.000033 -0.000227 -0.000080  0.000185  0.000198
  5C   1px        0.000253  0.000038 -0.000407 -0.000169  0.000552  0.000578
  5C   1py       -0.000177  0.000074 -0.000188 -0.000012 -0.000327 -0.000316
  5C   2pz        0.000589 -0.000240 -0.001087 -0.000253  0.000492  0.000012
  5C   2px        0.000214 -0.003025 -0.003656 -0.001450  0.003549  0.001662
  5C   2py        0.001836  0.004310  0.003067  0.001764 -0.004262 -0.002855
  5C   1dz2      -0.000013  0.000081 -0.000089 -0.000027  0.000046  0.000079
  5C   1dxz      -0.000084 -0.000073  0.000172  0.000049 -0.000191 -0.000239
  5C   1dyz      -0.000223 -0.000147 -0.000101 -0.000032  0.000050  0.000057
  5C   1dx2y2     0.000103  0.000115  0.000270  0.000073 -0.000254 -0.000308
  5C   1dxy      -0.000361 -0.000117 -0.000207 -0.000062  0.000034  0.000068
  6H   1s        -0.000019  0.000051 -0.000345 -0.000115 -0.000418 -0.000404
  6H   2s        -0.001551 -0.000962 -0.000707 -0.000182 -0.000752 -0.000669
  6H   1pz        0.000007  0.000032  0.000091  0.000020 -0.000012 -0.000013
  6H   1px        0.000149  0.000163  0.000296  0.000085 -0.000153 -0.000138
  6H   1py       -0.000232 -0.000129 -0.000239 -0.000083  0.000202  0.000189
  7H   1s        -0.000306 -0.000173  0.001401  0.000474 -0.001915 -0.002100
  7H   2s        -0.000768 -0.000380 -0.000349 -0.000102  0.000345  0.000459
  7H   1pz        0.000051  0.000051  0.000238  0.000078  0.000047  0.000088
  7H   1px        0.000090  0.000077  0.000662  0.000213 -0.000201 -0.000173
  7H   1py        0.000059  0.000059 -0.000284 -0.000090  0.000622  0.000728
  8H   1s         0.000175  0.000186  0.005283  0.001610 -0.000856 -0.000954
  8H   2s         0.000098  0.000174 -0.004058 -0.001358  0.001716  0.001769
  8H   1pz       -0.000028 -0.000001  0.000966  0.000311 -0.000158 -0.000140
  8H   1px       -0.000064 -0.000046  0.002334  0.000744 -0.000600 -0.000619
  8H   1py        0.000016  0.000102 -0.000437 -0.000125  0.000507  0.000632
  9H   1s        -0.000228 -0.000414  0.002046  0.000554  0.003779  0.004262
  9H   2s        -0.000156 -0.000812 -0.000376 -0.000141 -0.002466 -0.003856
  9H   1pz        0.000000 -0.000001  0.000436  0.000110  0.000768  0.000858
  9H   1px        0.000037  0.000007  0.000862  0.000214  0.000970  0.001044
  9H   1py       -0.000061 -0.000013  0.000205  0.000052  0.001538  0.001796
 10H   1s        -0.000301  0.000108 -0.000324 -0.000195  0.000476  0.000473
 10H   2s        -0.006992 -0.001179 -0.002420  0.000206 -0.005481  0.001157
 10H   1pz        0.000033  0.000012  0.000229  0.000048  0.000172  0.000170
 10H   1px        0.000051 -0.000008  0.000450  0.000094  0.000447  0.000393
 10H   1py        0.000133  0.000085  0.000084 -0.000001 -0.000104 -0.000026
 11N   1s         0.696015  0.701552 -0.000002  0.000004 -0.000008  0.000025
 11N   2s        -0.035172 -0.029704  0.000331 -0.000050  0.000162  0.000334
 11N   3s         0.033491  0.021478 -0.007806  0.001650 -0.006396 -0.001266
 11N   1pz       -0.000126 -0.000691 -0.000005 -0.000015 -0.000003 -0.000013
 11N   1px        0.000644 -0.001341 -0.000080 -0.000040 -0.000048 -0.000060
 11N   1py       -0.002172 -0.000254  0.000135 -0.000002  0.000096  0.000084
 11N   2pz       -0.005503 -0.002399  0.000245  0.000223 -0.000256  0.000247
 11N   2px       -0.011868 -0.004352 -0.000648  0.000928 -0.002533 -0.000078
 11N   2py        0.000835 -0.001536  0.002685 -0.001228  0.004715  0.001309
 11N   1dz2       0.001257 -0.000218  0.000028 -0.000054  0.000070  0.000015
 11N   1dxz      -0.000943  0.000128 -0.000018  0.000025 -0.000062 -0.000058
 11N   1dyz       0.000818 -0.000034  0.000044 -0.000001 -0.000035 -0.000050
 11N   1dx2y2    -0.000545 -0.000049 -0.000025 -0.000033  0.000034 -0.000020
 11N   1dxy       0.002510 -0.000279  0.000095 -0.000058  0.000020 -0.000077
 12N   1s        -0.700636  0.696938  0.000004  0.000001  0.000004  0.000026
 12N   2s         0.035368 -0.029472 -0.000227  0.000247 -0.000203  0.000302
 12N   3s        -0.033631  0.021265  0.005779 -0.005603  0.006303 -0.000224
 12N   1pz        0.000897 -0.000303 -0.000034  0.000033 -0.000040  0.000025
 12N   1px        0.002050 -0.000023 -0.000072  0.000116 -0.000103  0.000069
 12N   1py       -0.000375 -0.001500  0.000001 -0.000076  0.000045 -0.000047
 12N   2pz        0.001339 -0.001309 -0.000989  0.000674 -0.001840  0.000341
 12N   2px       -0.002448 -0.000787 -0.002425  0.001390 -0.004780  0.000629
 12N   2py        0.012840 -0.004887  0.000857  0.000241  0.002096  0.000332
 12N   1dz2      -0.001392 -0.000215 -0.000055  0.000001 -0.000079  0.000025
 12N   1dxz       0.000563  0.000174  0.000044  0.000027  0.000079 -0.000012
 12N   1dyz      -0.000699 -0.000056 -0.000030  0.000026  0.000030 -0.000055
 12N   1dx2y2    -0.000278  0.000047  0.000018  0.000022 -0.000001  0.000056
 12N   1dxy      -0.002627 -0.000280 -0.000097  0.000058  0.000004 -0.000076
 13C   1s         0.000119 -0.000265 -0.000581  0.001426  0.000486 -0.000480
 13C   2s         0.001029  0.001151 -0.000302  0.001392  0.000466 -0.000092
 13C   3s         0.011115 -0.011152 -0.003895  0.007760 -0.005013 -0.000258
 13C   1pz       -0.000124 -0.000093 -0.000012  0.000006 -0.000124  0.000093
 13C   1px        0.000033 -0.000705 -0.000102  0.000200 -0.000290  0.000181
 13C   1py       -0.000729  0.001231  0.000184 -0.000456  0.000060  0.000048
 13C   2pz        0.002049  0.003747  0.001763 -0.001266  0.007368 -0.003075
 13C   2px       -0.002907  0.010758  0.004103 -0.003851  0.014286 -0.006586
 13C   2py        0.017592 -0.006285 -0.000826  0.003030  0.004397 -0.000657
 13C   1dz2       0.000434 -0.000424 -0.000001  0.000066 -0.000044  0.000068
 13C   1dxz       0.000170 -0.000166 -0.000027  0.000005 -0.000001 -0.000055
 13C   1dyz      -0.000337  0.000019  0.000011 -0.000014 -0.000081  0.000031
 13C   1dx2y2     0.001094 -0.000742 -0.000031  0.000075  0.000083 -0.000064
 13C   1dxy       0.000082 -0.000555  0.000002  0.000074 -0.000158  0.000100
 14C   1s        -0.000009  0.000057 -0.000390 -0.012760 -0.057624  0.042960
 14C   2s         0.000281 -0.000600 -0.000795  0.001268 -0.002649  0.001653
 14C   3s        -0.004418 -0.001700 -0.003584  0.005465 -0.013215  0.009571
 14C   1pz        0.000041  0.000040  0.000057 -0.000141  0.000062 -0.000038
 14C   1px        0.000198  0.000063  0.000069 -0.000067  0.000470 -0.000369
 14C   1py       -0.000247  0.000050  0.000124 -0.000531 -0.000731  0.000620
 14C   2pz       -0.000794  0.001290 -0.000028  0.000985  0.001291 -0.000750
 14C   2px       -0.001708  0.004467 -0.000355  0.003767  0.004892 -0.002341
 14C   2py       -0.000556 -0.002467  0.000946 -0.003644 -0.003308  0.000981
 14C   1dz2      -0.000013  0.000084  0.000060 -0.000181 -0.000189  0.000201
 14C   1dxz       0.000097 -0.000129  0.000020 -0.000049 -0.000044  0.000031
 14C   1dyz       0.000181 -0.000098  0.000004 -0.000020  0.000058 -0.000057
 14C   1dx2y2    -0.000030 -0.000045  0.000083 -0.000246 -0.000372  0.000348
 14C   1dxy       0.000395 -0.000155  0.000094 -0.000293 -0.000174  0.000188
 15C   1s         0.000014 -0.000000  0.078153 -0.265884 -0.320796  0.283941
 15C   2s        -0.000680  0.000233  0.002905 -0.010052 -0.016047  0.014213
 15C   3s         0.005458 -0.004469  0.003217 -0.006744  0.006548 -0.005389
 15C   1pz        0.000018  0.000002  0.000264 -0.000863 -0.000182  0.000142
 15C   1px        0.000115 -0.000053  0.000377 -0.001248 -0.000256  0.000200
 15C   1py       -0.000107  0.000107  0.000480 -0.001537 -0.000339  0.000277
 15C   2pz       -0.000749  0.000019  0.000020 -0.000852 -0.000940  0.000211
 15C   2px       -0.002834  0.001414 -0.000534  0.000173 -0.003434  0.002259
 15C   2py        0.002294 -0.003108  0.001154 -0.004483  0.002494 -0.003753
 15C   1dz2      -0.000140  0.000073  0.000011 -0.000064  0.000330 -0.000328
 15C   1dxz       0.000087 -0.000053 -0.000093  0.000307 -0.000276  0.000271
 15C   1dyz       0.000072 -0.000050 -0.000180  0.000607  0.000017  0.000013
 15C   1dx2y2    -0.000079  0.000045  0.000046 -0.000195 -0.000095  0.000061
 15C   1dxy      -0.000007 -0.000031 -0.000347  0.001124  0.000307 -0.000259
 16C   1s         0.000014 -0.000011  0.256535 -0.842097 -0.166877  0.127266
 16C   2s        -0.000074  0.000030  0.012506 -0.040989 -0.009744  0.007734
 16C   3s        -0.003727  0.005410 -0.006806  0.020872  0.011552 -0.010034
 16C   1pz       -0.000019 -0.000010  0.000024 -0.000007  0.000970 -0.000849
 16C   1px        0.000012 -0.000053  0.000149 -0.000350  0.002059 -0.001818
 16C   1py       -0.000083  0.000041 -0.000185  0.000637  0.000227 -0.000175
 16C   2pz       -0.000082 -0.000789 -0.000476  0.000521  0.000559 -0.001344
 16C   2px        0.000767 -0.002708 -0.000091 -0.001094  0.000796 -0.002161
 16C   2py       -0.002086  0.002102 -0.002088  0.004951  0.001192 -0.001942
 16C   1dz2      -0.000005 -0.000009 -0.000357  0.001218  0.000669 -0.000531
 16C   1dxz       0.000018 -0.000003  0.000163 -0.000592 -0.000707  0.000575
 16C   1dyz       0.000006 -0.000007  0.000139 -0.000444  0.000271 -0.000261
 16C   1dx2y2     0.000022 -0.000008 -0.000279  0.000866 -0.000610  0.000549
 16C   1dxy       0.000008 -0.000018 -0.000153  0.000558  0.000997 -0.000862
 17C   1s         0.000003 -0.000017  0.115526 -0.333393  0.644219 -0.570236
 17C   2s        -0.000486  0.000717  0.004987 -0.013642  0.034182 -0.029967
 17C   3s         0.003923 -0.007369  0.002812 -0.004260 -0.021835  0.022043
 17C   1pz       -0.000063  0.000066 -0.000221  0.000726  0.000114 -0.000094
 17C   1px       -0.000065  0.000099 -0.000595  0.001920  0.000357 -0.000310
 17C   1py       -0.000103  0.000063  0.000232 -0.000664 -0.000129  0.000156
 17C   2pz        0.000655 -0.002085 -0.000381  0.001020 -0.002646  0.001639
 17C   2px        0.000531 -0.003599 -0.001932  0.003968 -0.004368  0.001425
 17C   2py        0.001904 -0.002165  0.002292 -0.003684 -0.003437  0.004854
 17C   1dz2      -0.000123  0.000139 -0.000022 -0.000066 -0.001257  0.001067
 17C   1dxz       0.000095 -0.000074 -0.000079  0.000368  0.001310 -0.001102
 17C   1dyz      -0.000005 -0.000022  0.000154 -0.000458  0.000560 -0.000521
 17C   1dx2y2     0.000005  0.000065 -0.000299  0.000953  0.000055  0.000014
 17C   1dxy      -0.000130  0.000113  0.000183 -0.000655 -0.000090  0.000005
 18C   1s        -0.000068 -0.000011  0.004430 -0.014565  0.038766 -0.030270
 18C   2s         0.000822 -0.000228 -0.000394  0.001152  0.000225  0.000385
 18C   3s        -0.002140  0.011732  0.000047  0.001418  0.016164 -0.013851
 18C   1pz       -0.000042  0.000045 -0.000014  0.000063  0.000158 -0.000199
 18C   1px       -0.000053 -0.000014 -0.000105  0.000424 -0.000376  0.000274
 18C   1py       -0.000133  0.000262  0.000132 -0.000603  0.001520 -0.001546
 18C   2pz        0.002753  0.001529  0.001643 -0.002999  0.004287 -0.000576
 18C   2px        0.005499  0.001882  0.001248 -0.003199  0.005574 -0.000667
 18C   2py        0.000736  0.003359  0.005270 -0.007542  0.008234 -0.001232
 18C   1dz2      -0.000046 -0.000081  0.000090 -0.000230  0.000697 -0.000590
 18C   1dxz       0.000290 -0.000162  0.000022 -0.000035 -0.000090  0.000092
 18C   1dyz      -0.000029  0.000139 -0.000003  0.000063 -0.000044  0.000127
 18C   1dx2y2     0.000381 -0.000441  0.000144 -0.000391  0.000690 -0.000639
 18C   1dxy       0.000015  0.000053  0.000131 -0.000230  0.000792 -0.000514
 19H   1s         0.000300  0.000109  0.000021 -0.000374 -0.000532  0.000404
 19H   2s         0.007000 -0.001134  0.001515 -0.001892  0.005318  0.001866
 19H   1pz       -0.000080  0.000038 -0.000050  0.000092 -0.000041  0.000053
 19H   1px       -0.000104  0.000076 -0.000016 -0.000003  0.000170 -0.000052
 19H   1py       -0.000064  0.000002 -0.000196  0.000475 -0.000508  0.000349
 20H   1s         0.000019  0.000051  0.000096 -0.000338  0.000504 -0.000386
 20H   2s         0.001558 -0.000952  0.000238 -0.000654  0.000926 -0.000661
 20H   1pz        0.000072 -0.000021  0.000018 -0.000065 -0.000062  0.000047
 20H   1px        0.000240 -0.000147  0.000074 -0.000266 -0.000245  0.000176
 20H   1py       -0.000119  0.000146 -0.000099  0.000288  0.000161 -0.000120
 21H   1s         0.000307 -0.000171 -0.000426  0.001514  0.002433 -0.002111
 21H   2s         0.000771 -0.000375  0.000146 -0.000461 -0.000714  0.000739
 21H   1pz       -0.000043  0.000036  0.000011 -0.000039 -0.000331  0.000314
 21H   1px       -0.000038  0.000043  0.000125 -0.000413 -0.000826  0.000760
 21H   1py       -0.000105  0.000093 -0.000202  0.000685  0.000162 -0.000089
 22H   1s        -0.000176  0.000185 -0.001638  0.005227  0.000875 -0.000727
 22H   2s        -0.000099  0.000173  0.001143 -0.004027 -0.001717  0.001300
 22H   1pz        0.000001  0.000040 -0.000047  0.000179 -0.000160  0.000175
 22H   1px       -0.000024  0.000099  0.000236 -0.000747 -0.000627  0.000583
 22H   1py        0.000068 -0.000034 -0.000724  0.002423  0.000549 -0.000396
 23H   1s         0.000230 -0.000412 -0.000705  0.002039 -0.004231  0.003669
 23H   2s         0.000161 -0.000811  0.000120 -0.000469  0.002758 -0.003318
 23H   1pz        0.000019 -0.000003 -0.000085  0.000233 -0.000931  0.000821
 23H   1px        0.000062 -0.000013 -0.000022  0.000071 -0.001388  0.001258
 23H   1py       -0.000028  0.000005 -0.000349  0.000948 -0.001402  0.001173
                      6         7         8         9        10        11   
                 -10.10062 -10.10061 -10.09983 -10.09981 -10.09903 -10.09900
                   2.00000   2.00000   2.00000   2.00000   2.00000   2.00000
                  --------  --------  --------  --------  --------  --------
  0C   1s        -0.003620  0.875792 -0.067049 -0.059152 -0.012004 -0.014792
  0C   2s        -0.000193  0.046333 -0.006413 -0.005750  0.000343  0.000471
  0C   3s         0.000169 -0.036893  0.008214  0.010641  0.007055  0.009643
  0C   1pz        0.000002 -0.000507 -0.000816 -0.000723  0.000001 -0.000002
  0C   1px        0.000003 -0.000804 -0.001854 -0.001644  0.000104  0.000131
  0C   1py        0.000004 -0.000625  0.000181  0.000162 -0.000169 -0.000244
  0C   2pz        0.000085  0.000575 -0.000278 -0.000793  0.000669  0.001377
  0C   2px        0.000181 -0.001322 -0.001100 -0.001403  0.001213  0.002692
  0C   2py       -0.000002  0.005235  0.000785 -0.000663  0.000165  0.000314
  0C   1dz2       0.000008 -0.001953  0.000713  0.000633  0.000067  0.000093
  0C   1dxz      -0.000007  0.001550 -0.001052 -0.000933 -0.000040 -0.000059
  0C   1dyz      -0.000004  0.001096  0.000012  0.000012 -0.000013 -0.000024
  0C   1dx2y2     0.000002 -0.000875 -0.000807 -0.000714  0.000014  0.000021
  0C   1dxy       0.000001 -0.000220  0.000472  0.000429  0.000050  0.000057
  1C   1s         0.001094 -0.360899  0.000701 -0.001440  0.000880  0.003758
  1C   2s         0.000027 -0.023283 -0.000382 -0.000262  0.000148  0.000383
  1C   3s        -0.000086  0.032346 -0.001192 -0.002378  0.000177 -0.000837
  1C   1pz        0.000002 -0.000863  0.000090  0.000087  0.000087  0.000119
  1C   1px       -0.000004 -0.001268 -0.000047 -0.000005  0.000062  0.000084
  1C   1py        0.000018 -0.001131  0.000476  0.000398  0.000263  0.000363
  1C   2pz        0.000074  0.000999  0.000801 -0.000013 -0.001344 -0.001456
  1C   2px        0.000056  0.003199  0.002573  0.001426 -0.001932 -0.002758
  1C   2py        0.000220 -0.002347 -0.001621 -0.003010 -0.001876 -0.000819
  1C   1dz2      -0.000000  0.001581 -0.000115 -0.000100  0.000075  0.000150
  1C   1dxz       0.000005 -0.001548  0.000201  0.000173 -0.000049 -0.000090
  1C   1dyz       0.000004 -0.001189  0.000124  0.000104  0.000014 -0.000002
  1C   1dx2y2     0.000004  0.000591  0.000048  0.000042 -0.000007  0.000027
  1C   1dxy       0.000008 -0.000463  0.000143  0.000117  0.000103  0.000165
  2C   1s         0.005254  0.268890  0.032058  0.020178  0.029619  0.036369
  2C   2s         0.000277  0.014951  0.000306  0.000120  0.003734  0.005170
  2C   3s        -0.000459 -0.018477 -0.010416 -0.005931 -0.006833 -0.010298
  2C   1pz        0.000000 -0.000082 -0.000125 -0.000085  0.000561  0.000778
  2C   1px        0.000002 -0.000625 -0.000175 -0.000108  0.001379  0.001989
  2C   1py       -0.000002  0.000906 -0.000221 -0.000174 -0.000276 -0.000593
  2C   2pz       -0.000083  0.000843 -0.001088 -0.000294  0.001595  0.000719
  2C   2px       -0.000313  0.002862 -0.003517 -0.000929  0.002525  0.000297
  2C   2py        0.000275 -0.001969  0.002526  0.000778  0.001751  0.002818
  2C   1dz2      -0.000001 -0.001026 -0.000058 -0.000053 -0.000463 -0.000631
  2C   1dxz       0.000004  0.000644  0.000072  0.000058  0.000888  0.001082
  2C   1dyz       0.000006  0.000471  0.000061  0.000045  0.000032 -0.000004
  2C   1dx2y2     0.000000 -0.000615 -0.000007 -0.000005  0.000779  0.000939
  2C   1dxy       0.000010 -0.000318  0.000055  0.000029 -0.000140 -0.000321
  3C   1s        -0.000237 -0.004572  0.006453  0.005655 -0.578450 -0.798608
  3C   2s        -0.000074 -0.002288 -0.000161 -0.000065 -0.031118 -0.041782
  3C   3s         0.000305 -0.004057 -0.005113 -0.002518  0.016030  0.017643
  3C   1pz        0.000016  0.000285  0.000133  0.000066  0.000124  0.000074
  3C   1px        0.000030  0.000758  0.000321  0.000170 -0.000009  0.000108
  3C   1py        0.000010 -0.000244 -0.000043 -0.000004  0.000582  0.000321
  3C   2pz       -0.000292 -0.001205 -0.005735 -0.002424 -0.003132 -0.003377
  3C   2px       -0.000364 -0.001476 -0.012141 -0.005588 -0.001110 -0.004328
  3C   2py       -0.000598 -0.002976 -0.001044  0.000248 -0.012462 -0.007421
  3C   1dz2      -0.000006  0.000279 -0.000086 -0.000080  0.001135  0.001604
  3C   1dxz      -0.000002 -0.000412 -0.000079 -0.000031 -0.000982 -0.001286
  3C   1dyz      -0.000007  0.000004  0.000003  0.000059 -0.000482 -0.000669
  3C   1dx2y2    -0.000003 -0.000308 -0.000216 -0.000186  0.000285  0.000553
  3C   1dxy      -0.000019  0.000154 -0.000152 -0.000039  0.000199  0.000330
  4C   1s        -0.000003  0.001556  0.007299  0.005987 -0.006818 -0.008166
  4C   2s        -0.000029 -0.000531 -0.002269 -0.001968  0.000638  0.001542
  4C   3s         0.000577  0.000221  0.013421  0.009302 -0.000244 -0.004957
  4C   1pz       -0.000005  0.000103 -0.000079 -0.000064 -0.000627 -0.000770
  4C   1px       -0.000008  0.000163  0.000581  0.000614 -0.000926 -0.001092
  4C   1py       -0.000004  0.000086 -0.001389 -0.001426 -0.000957 -0.001304
  4C   2pz       -0.000228 -0.003968 -0.000936 -0.000308 -0.007000 -0.007701
  4C   2px       -0.000399 -0.005830  0.005231  0.002228 -0.010881 -0.011275
  4C   2py       -0.000257 -0.005376 -0.015834 -0.006029 -0.009071 -0.011020
  4C   1dz2      -0.000006 -0.000059  0.000738  0.000739 -0.000367 -0.000494
  4C   1dxz       0.000003  0.000130  0.000086 -0.000012  0.000459  0.000609
  4C   1dyz       0.000006  0.000048 -0.000168 -0.000131  0.000674  0.000943
  4C   1dx2y2    -0.000010  0.000092  0.000954  0.000835 -0.000337 -0.000524
  4C   1dxy       0.000002  0.000086  0.000869  0.000860  0.000912  0.001255
  5C   1s         0.000012  0.070421  0.727798  0.660171  0.002686  0.004366
  5C   2s         0.000029 -0.000126  0.038238  0.034236  0.000536  0.000767
  5C   3s        -0.000307  0.012669 -0.013481 -0.018462  0.000813  0.001174
  5C   1pz       -0.000004  0.000860  0.000022 -0.000007 -0.000044 -0.000077
  5C   1px       -0.000008  0.002167  0.000094 -0.000025 -0.000126 -0.000203
  5C   1py        0.000002 -0.000599 -0.000062  0.000055  0.000022  0.000015
  5C   2pz        0.000092  0.000909  0.000226  0.000811  0.002922  0.004162
  5C   2px        0.000180  0.002240  0.002177  0.001597  0.007050  0.010129
  5C   2py        0.000057 -0.000563 -0.002583  0.000498 -0.000952 -0.001674
  5C   1dz2      -0.000001  0.000564 -0.001418 -0.001276  0.000013  0.000045
  5C   1dxz       0.000004 -0.001065  0.001399  0.001252 -0.000010 -0.000024
  5C   1dyz      -0.000002  0.000064  0.000819  0.000739 -0.000114 -0.000148
  5C   1dx2y2     0.000008 -0.001019 -0.000215 -0.000221  0.000130  0.000175
  5C   1dxy      -0.000001  0.000359 -0.000050 -0.000030 -0.000160 -0.000178
  6H   1s        -0.000010 -0.000806 -0.003918 -0.003736 -0.000600 -0.000874
  6H   2s        -0.000027 -0.001750  0.004679  0.004213 -0.001376 -0.002163
  6H   1pz        0.000001 -0.000154  0.001030  0.000925 -0.000066 -0.000083
  6H   1px        0.000002 -0.000393  0.001261  0.001152 -0.000167 -0.000250
  6H   1py       -0.000002  0.000130  0.001864  0.001678  0.000017  0.000103
  7H   1s         0.000029 -0.005145  0.000226  0.000219 -0.000201 -0.000249
  7H   2s        -0.000012  0.006041 -0.001645 -0.001510 -0.000742 -0.000952
  7H   1pz       -0.000004  0.000170  0.000149  0.000151 -0.000017 -0.000040
  7H   1px       -0.000002 -0.001064  0.000525  0.000490 -0.000002 -0.000047
  7H   1py       -0.000013  0.002863 -0.000389 -0.000325 -0.000038 -0.000051
  8H   1s         0.000005  0.002043  0.000557  0.000440 -0.000335 -0.000493
  8H   2s         0.000023 -0.004182  0.001100  0.000877 -0.000700 -0.000928
  8H   1pz       -0.000004  0.000711 -0.000017  0.000005  0.000050  0.000046
  8H   1px       -0.000005  0.001543 -0.000071 -0.000048  0.000052  0.000056
  8H   1py       -0.000010  0.000036  0.000066  0.000125  0.000101  0.000084
  9H   1s        -0.000023 -0.001003  0.000188  0.000167  0.000094  0.000184
  9H   2s         0.000112  0.003344  0.001252  0.000743  0.003077  0.002687
  9H   1pz       -0.000003 -0.000465 -0.000006 -0.000011 -0.000199 -0.000246
  9H   1px        0.000004 -0.000638  0.000047  0.000002 -0.000406 -0.000478
  9H   1py       -0.000021 -0.000815 -0.000137 -0.000068 -0.000028 -0.000134
 10H   1s        -0.000004 -0.000032  0.000717  0.000490  0.002646  0.004226
 10H   2s        -0.000568 -0.000370  0.001060  0.001030 -0.023646 -0.010505
 10H   1pz        0.000010  0.000008  0.000139  0.000119  0.000008  0.000111
 10H   1px        0.000031 -0.000040  0.000312  0.000283 -0.000632 -0.000726
 10H   1py       -0.000026  0.000163  0.000049 -0.000006  0.001701  0.002282
 11N   1s         0.000002  0.000010  0.000072  0.000087 -0.000100 -0.000025
 11N   2s         0.000060 -0.000036  0.001328  0.000839 -0.000878 -0.000306
 11N   3s         0.000113  0.003362 -0.017057 -0.003253  0.000566  0.008146
 11N   1pz       -0.000010 -0.000003  0.000118  0.000037 -0.000042 -0.000102
 11N   1px       -0.000017  0.000018  0.000108 -0.000050 -0.000111 -0.000307
 11N   1py        0.000011 -0.000008  0.000248  0.000207  0.000133  0.000349
 11N   2pz       -0.000072 -0.000403  0.001098  0.000821 -0.001975 -0.001428
 11N   2px       -0.000150 -0.001164 -0.000880  0.000972 -0.006431 -0.004327
 11N   2py        0.000116  0.000911  0.007232  0.001056  0.005726  0.003651
 11N   1dz2       0.000009  0.000021  0.000118 -0.000033  0.000148  0.000099
 11N   1dxz      -0.000002 -0.000046 -0.000139 -0.000079 -0.000066 -0.000081
 11N   1dyz       0.000006 -0.000054 -0.000020 -0.000032 -0.000075 -0.000130
 11N   1dx2y2     0.000005  0.000009 -0.000006 -0.000125  0.000138  0.000126
 11N   1dxy       0.000017 -0.000071  0.000058 -0.000120  0.000041 -0.000117
 12N   1s         0.000009  0.000004 -0.000063  0.000094  0.000103  0.000008
 12N   2s        -0.000059  0.000072 -0.001240  0.000965  0.000930 -0.000017
 12N   3s         0.003590  0.000329  0.016653 -0.004912 -0.003075  0.007569
 12N   1pz        0.000003  0.000006 -0.000109  0.000085 -0.000093  0.000107
 12N   1px       -0.000022  0.000011 -0.000196  0.000223 -0.000230  0.000289
 12N   1py        0.000016 -0.000020 -0.000164  0.000004  0.000198 -0.000249
 12N   2pz        0.000167 -0.000001 -0.003044  0.000827 -0.001962  0.000509
 12N   2px        0.000726 -0.000023 -0.006561  0.001536 -0.006963  0.001786
 12N   2py       -0.001065 -0.000069 -0.000013  0.001302  0.007207 -0.002092
 12N   1dz2       0.000025  0.000005 -0.000133  0.000029 -0.000133  0.000038
 12N   1dxz      -0.000030 -0.000006  0.000112  0.000041  0.000211 -0.000093
 12N   1dyz      -0.000046  0.000005  0.000016 -0.000072  0.000067 -0.000083
 12N   1dx2y2     0.000023 -0.000003 -0.000039  0.000159  0.000104 -0.000011
 12N   1dxy      -0.000066  0.000013 -0.000070 -0.000075  0.000040 -0.000140
 13C   1s         0.001633 -0.000003 -0.006677  0.006673  0.009012 -0.005630
 13C   2s        -0.000471 -0.000018  0.002067 -0.002183 -0.001086  0.001266
 13C   3s         0.000127  0.000365 -0.012446  0.010576  0.001775 -0.004638
 13C   1pz        0.000047 -0.000002  0.000443 -0.000557  0.000780 -0.000542
 13C   1px        0.000040 -0.000004  0.001227 -0.001534  0.001006 -0.000736
 13C   1py        0.000185 -0.000003 -0.000341  0.000454  0.001515 -0.000947
 13C   2pz       -0.002693 -0.000078  0.006008 -0.002917  0.007452 -0.004453
 13C   2px       -0.003043  0.000004  0.014509 -0.007301  0.008883 -0.005887
 13C   2py       -0.006896 -0.000342 -0.003061  0.001745  0.016865 -0.009161
 13C   1dz2      -0.000087 -0.000002 -0.000434  0.000570  0.000400 -0.000283
 13C   1dxz       0.000037  0.000007  0.000704 -0.000835 -0.000814  0.000602
 13C   1dyz       0.000090  0.000001 -0.000170  0.000196 -0.000918  0.000651
 13C   1dx2y2    -0.000130  0.000005  0.000945 -0.000984  0.000127 -0.000052
 13C   1dxy       0.000030  0.000004 -0.000477  0.000619 -0.001283  0.000948
 14C   1s         0.063652  0.000387 -0.659692  0.728426 -0.003986  0.003369
 14C   2s        -0.000399  0.000017 -0.034699  0.037820 -0.000751  0.000564
 14C   3s         0.011651 -0.000239  0.011588 -0.019671 -0.001132  0.000856
 14C   1pz        0.000079  0.000000  0.000009  0.000026  0.000026 -0.000027
 14C   1px       -0.000835 -0.000003  0.000080  0.000042 -0.000057  0.000035
 14C   1py        0.002165  0.000005 -0.000092 -0.000012  0.000186 -0.000159
 14C   2pz        0.000228  0.000063  0.000709  0.000420 -0.001004  0.000646
 14C   2px       -0.000391  0.000081  0.002786 -0.000082  0.002857 -0.002343
 14C   2py        0.002030  0.000128 -0.001639  0.001957 -0.010320  0.007760
 14C   1dz2       0.000881  0.000004  0.001385 -0.001504  0.000000  0.000018
 14C   1dxz      -0.000097 -0.000003 -0.001181  0.001311  0.000128 -0.000101
 14C   1dyz      -0.000261 -0.000001 -0.000682  0.000747  0.000101 -0.000069
 14C   1dx2y2     0.001089  0.000001  0.000277 -0.000284  0.000086 -0.000065
 14C   1dxy       0.000657  0.000002  0.000007  0.000012  0.000256 -0.000153
 15C   1s         0.840801  0.002734  0.059868 -0.064316  0.015994 -0.010322
 15C   2s         0.044661  0.000134  0.005764 -0.006293 -0.000473  0.000340
 15C   3s        -0.036532 -0.000018 -0.007093  0.011353 -0.009709  0.006969
 15C   1pz       -0.000438  0.000002  0.000189 -0.000204  0.000075 -0.000061
 15C   1px       -0.000502  0.000003 -0.000404  0.000437  0.000241 -0.000179
 15C   1py       -0.001030  0.000003  0.001793 -0.001935 -0.000106  0.000068
 15C   2pz        0.002010  0.000009 -0.000190 -0.000491 -0.000361  0.000421
 15C   2px        0.004699 -0.000017 -0.000948 -0.000294  0.000029 -0.000087
 15C   2py       -0.000338  0.000082  0.000870 -0.001715 -0.002243  0.002417
 15C   1dz2      -0.001861 -0.000004 -0.000889  0.000964 -0.000087  0.000063
 15C   1dxz       0.001961  0.000004  0.000240 -0.000260  0.000072 -0.000055
 15C   1dyz       0.000861  0.000001  0.000231 -0.000243  0.000015 -0.000016
 15C   1dx2y2     0.000186  0.000001 -0.000840  0.000903  0.000014 -0.000008
 15C   1dxy       0.000054 -0.000002 -0.000665  0.000725 -0.000061  0.000036
 16C   1s        -0.395442  0.000470 -0.000762 -0.001465 -0.002031  0.003312
 16C   2s        -0.025149 -0.000003  0.000363 -0.000307 -0.000260  0.000318
 16C   3s         0.034038 -0.000068  0.000934 -0.002463  0.000092 -0.000850
 16C   1pz       -0.000582 -0.000004 -0.000179  0.000191 -0.000173  0.000126
 16C   1px       -0.000656 -0.000006 -0.000404  0.000404 -0.000319  0.000230
 16C   1py       -0.001534 -0.000008 -0.000021  0.000060 -0.000149  0.000107
 16C   2pz       -0.000452  0.000053  0.000189 -0.001125  0.001291 -0.000406
 16C   2px       -0.002467  0.000095  0.001582 -0.003132  0.001467  0.000132
 16C   2py        0.003387  0.000050 -0.002390  0.001301  0.003256 -0.002206
 16C   1dz2       0.001695  0.000000  0.000134 -0.000142 -0.000120  0.000116
 16C   1dxz      -0.001768 -0.000002 -0.000100  0.000105  0.000078 -0.000092
 16C   1dyz      -0.001044 -0.000002 -0.000137  0.000140 -0.000018  0.000007
 16C   1dx2y2     0.000149  0.000000  0.000132 -0.000138  0.000010 -0.000027
 16C   1dxy      -0.000463 -0.000005 -0.000104  0.000103 -0.000146  0.000113
 17C   1s         0.327117  0.000039 -0.029863  0.023149 -0.039700  0.025522
 17C   2s         0.018113  0.000017 -0.000289  0.000145 -0.005170  0.003760
 17C   3s        -0.020950 -0.000181  0.009785 -0.006925  0.009704 -0.007661
 17C   1pz        0.000325 -0.000000  0.000118 -0.000108 -0.000113  0.000018
 17C   1px        0.001002 -0.000002  0.000157 -0.000156  0.000707 -0.000657
 17C   1py       -0.000559  0.000003  0.000207 -0.000164 -0.002004  0.001500
 17C   2pz       -0.000602  0.000054 -0.000559  0.000281 -0.001487  0.000895
 17C   2px       -0.002474  0.000194 -0.002723  0.001105 -0.001951  0.001992
 17C   2py        0.002239 -0.000162  0.003300 -0.001226 -0.003113 -0.000235
 17C   1dz2      -0.001034  0.000005  0.000057 -0.000062  0.000978 -0.000662
 17C   1dxz       0.001197 -0.000003 -0.000055  0.000057 -0.000167  0.000129
 17C   1dyz       0.000350  0.000001 -0.000060  0.000054 -0.000380  0.000207
 17C   1dx2y2     0.000356  0.000000  0.000029 -0.000024  0.001210 -0.000735
 17C   1dxy      -0.000178  0.000006 -0.000049  0.000032  0.000574 -0.000475
 18C   1s        -0.001150 -0.000359 -0.005920  0.006307  0.798357 -0.578771
 18C   2s        -0.002275 -0.000048  0.000152 -0.000079  0.042579 -0.030013
 18C   3s        -0.002440  0.000159  0.004859 -0.003028 -0.020726  0.011774
 18C   1pz        0.000038  0.000004 -0.000031  0.000035 -0.000301  0.000101
 18C   1px       -0.000368  0.000003  0.000087 -0.000043 -0.000583  0.000075
 18C   1py        0.000926  0.000011 -0.000318  0.000208 -0.000123  0.000108
 18C   2pz       -0.001441 -0.000187  0.002315 -0.001059  0.006741 -0.002113
 18C   2px       -0.002178 -0.000293 -0.000809  0.001194  0.012433 -0.002221
 18C   2py       -0.001652 -0.000249  0.012576 -0.007210  0.004711 -0.004444
 18C   1dz2       0.000434 -0.000008  0.000018 -0.000035 -0.001504  0.001076
 18C   1dxz      -0.000125  0.000004 -0.000111  0.000138  0.001505 -0.001149
 18C   1dyz      -0.000120 -0.000003  0.000070 -0.000010  0.000628 -0.000426
 18C   1dx2y2     0.000430 -0.000000 -0.000219  0.000194 -0.000089 -0.000053
 18C   1dxy       0.000329 -0.000014  0.000083  0.000012 -0.000251  0.000190
 19H   1s        -0.000091 -0.000001 -0.000666  0.000557 -0.003829  0.003191
 19H   2s        -0.000242 -0.000239 -0.000955  0.001127  0.025740 -0.002610
 19H   1pz        0.000070 -0.000006 -0.000075  0.000056 -0.000957  0.000666
 19H   1px        0.000162 -0.000023  0.000005 -0.000054 -0.002202  0.001552
 19H   1py       -0.000059  0.000030 -0.000305  0.000330  0.000577 -0.000292
 20H   1s        -0.000760 -0.000013  0.003534 -0.004103  0.000843 -0.000644
 20H   2s        -0.001694 -0.000033 -0.004241  0.004649  0.001980 -0.001626
 20H   1pz       -0.000012 -0.000000 -0.000899  0.000995  0.000022  0.000008
 20H   1px        0.000147 -0.000001 -0.001384  0.001509 -0.000084  0.000116
 20H   1py       -0.000387  0.000001 -0.001521  0.001680  0.000242 -0.000181
 21H   1s        -0.004886 -0.000011 -0.000197  0.000233  0.000268 -0.000174
 21H   2s         0.005974  0.000023  0.001483 -0.001657  0.001001 -0.000674
 21H   1pz        0.001044  0.000002  0.000077 -0.000072  0.000019 -0.000020
 21H   1px        0.002697  0.000008  0.000396 -0.000410  0.000049 -0.000029
 21H   1py       -0.000654 -0.000005 -0.000451  0.000522  0.000031 -0.000055
 22H   1s         0.002245  0.000005 -0.000512  0.000493  0.000472 -0.000364
 22H   2s        -0.004442  0.000013 -0.001006  0.000978  0.000955 -0.000664
 22H   1pz        0.000247 -0.000001 -0.000013  0.000050 -0.000061  0.000027
 22H   1px       -0.000285 -0.000001 -0.000059  0.000128 -0.000103  0.000039
 22H   1py        0.001774 -0.000002  0.000061 -0.000038 -0.000094  0.000048
 23H   1s        -0.001383  0.000009 -0.000172  0.000186 -0.000146  0.000145
 23H   2s         0.003666  0.000045 -0.001174  0.000864 -0.003763  0.001596
 23H   1pz       -0.000553 -0.000001  0.000052 -0.000037  0.000111 -0.000107
 23H   1px       -0.000783 -0.000007  0.000124 -0.000073 -0.000017 -0.000057
 23H   1py       -0.000932  0.000008 -0.000031 -0.000004  0.000591 -0.000370
                     12        13        14        15        16        17   
                 -10.09029 -10.09017  -1.00494  -0.90751  -0.90042  -0.82949
                   2.00000   2.00000   2.00000   2.00000   2.00000   2.00000
                  --------  --------  --------  --------  --------  --------
  0C   1s         0.000039 -0.000024  0.005410  0.080255  0.089718  0.060345
  0C   2s        -0.001004 -0.000828 -0.010809 -0.161602 -0.181282 -0.126373
  0C   3s        -0.008543 -0.007274  0.000372 -0.008199 -0.014537 -0.048999
  0C   1pz        0.000073  0.000074 -0.000708  0.000946  0.002732  0.023105
  0C   1px        0.000006  0.000025 -0.003261 -0.020582 -0.019305  0.031445
  0C   1py        0.000242  0.000213  0.003506  0.045979  0.051251  0.038223
  0C   2pz       -0.001898 -0.002237 -0.002869  0.000597  0.002219  0.005692
  0C   2px       -0.002975 -0.003636 -0.004411 -0.001417  0.000672  0.003891
  0C   2py       -0.002014 -0.002111 -0.003554  0.005474  0.008457  0.017413
  0C   1dz2      -0.000192 -0.000169  0.000419  0.004353  0.004714  0.002151
  0C   1dxz       0.000167  0.000158 -0.000428 -0.004574 -0.004956 -0.002116
  0C   1dyz       0.000041  0.000044 -0.000029 -0.002110 -0.002549 -0.003605
  0C   1dx2y2     0.000019  0.000026 -0.000154 -0.000019  0.000239  0.002782
  0C   1dxy      -0.000133 -0.000099  0.000323  0.000421  0.000037 -0.003753
  1C   1s         0.001783  0.001592  0.004009  0.078892  0.091287  0.102961
  1C   2s        -0.001072 -0.000864 -0.007910 -0.158828 -0.184315 -0.215188
  1C   3s         0.001016 -0.000870 -0.005692 -0.030871 -0.032515 -0.008028
  1C   1pz       -0.000131 -0.000104 -0.001316 -0.019203 -0.021457 -0.013540
  1C   1px       -0.000308 -0.000255 -0.003137 -0.045147 -0.050527 -0.034010
  1C   1py       -0.000003  0.000029  0.000649  0.008400  0.009608  0.011296
  1C   2pz        0.000834  0.000238 -0.001500 -0.005786 -0.004942  0.001850
  1C   2px        0.002239  0.001129 -0.001871 -0.013310 -0.013085  0.003526
  1C   2py       -0.000801 -0.001279 -0.002837  0.001903  0.005129  0.001445
  1C   1dz2      -0.000077 -0.000048  0.000323  0.004508  0.005134  0.004523
  1C   1dxz       0.000053  0.000035 -0.000320 -0.003865 -0.004289 -0.002767
  1C   1dyz       0.000035  0.000022 -0.000133 -0.002292 -0.002646 -0.002675
  1C   1dx2y2    -0.000028 -0.000013  0.000009  0.001475  0.001878  0.003477
  1C   1dxy      -0.000024 -0.000013  0.000073  0.000655  0.000744  0.000601
  2C   1s        -0.000229 -0.000367  0.005704  0.079023  0.089239  0.073255
  2C   2s        -0.000659 -0.000610 -0.010868 -0.159111 -0.180200 -0.153183
  2C   3s        -0.014229 -0.008941 -0.000340 -0.008952 -0.018469 -0.056194
  2C   1pz       -0.000075 -0.000047 -0.002319 -0.020327 -0.021626 -0.002863
  2C   1px       -0.000120 -0.000050 -0.004077 -0.026438 -0.026586  0.016943
  2C   1py       -0.000143 -0.000163 -0.001969 -0.036668 -0.042230 -0.047643
  2C   2pz       -0.001856 -0.000840  0.000093 -0.000678 -0.003763 -0.005405
  2C   2px       -0.004649 -0.002388  0.000454 -0.000036 -0.006103 -0.003572
  2C   2py        0.001345  0.001376 -0.000679 -0.003140 -0.004111 -0.016863
  2C   1dz2      -0.000119 -0.000141  0.000408  0.004608  0.005161  0.003968
  2C   1dxz       0.000122  0.000152 -0.000605 -0.003984 -0.004296 -0.000859
  2C   1dyz       0.000074  0.000063 -0.000131 -0.001506 -0.001673 -0.000999
  2C   1dx2y2    -0.000025  0.000012 -0.000324  0.000566  0.000872  0.003984
  2C   1dxy       0.000041  0.000006  0.000045  0.001873  0.002207  0.003384
  3C   1s        -0.007558 -0.006249  0.018055  0.082188  0.082009 -0.015620
  3C   2s        -0.002710 -0.002602 -0.034755 -0.166573 -0.165217  0.032803
  3C   3s         0.031330  0.024999 -0.008137 -0.028812 -0.030825  0.054085
  3C   1pz       -0.000611 -0.000650 -0.006874 -0.003064  0.002149  0.032152
  3C   1px       -0.000794 -0.000911 -0.009995  0.015667  0.025943  0.061056
  3C   1py       -0.001246 -0.001136 -0.010117 -0.046910 -0.044501  0.018971
  3C   2pz       -0.000658  0.000429 -0.000770 -0.002012 -0.001882  0.006847
[...]
 5 C  dxy             0.2       0.5       0.2       2.1       4.7       1.8
 6 H  s               0.1       0.0       0.0       0.4       0.8       0.3
 6 H  px              0.0       0.5       0.2       0.2       0.1       0.0
 6 H  py              0.1       0.4       0.1       0.1       0.4       0.1
 7 H  s               0.8       0.0       0.2       0.5       1.0       0.2
 7 H  pz              0.0       0.2       0.0       0.0       0.0       0.0
 7 H  px              0.6       0.6       0.0       0.2       0.1       0.0
 7 H  py              0.5       0.1       0.2       0.3       0.6       0.1
 8 H  s               0.4       0.0       0.7       0.5       1.1       0.2
 8 H  pz              0.0       0.0       0.1       0.0       0.1       0.0
 8 H  px              0.3       0.0       0.5       0.3       0.6       0.1
 8 H  py              0.7       0.8       0.0       0.0       0.0       0.0
 9 H  s               0.0       0.0       0.4       0.4       1.0       0.3
 9 H  pz              0.0       0.0       0.1       0.0       0.1       0.0
 9 H  px              0.0       0.4       0.4       0.0       0.2       0.1
 9 H  py              0.0       0.4       0.0       0.2       0.4       0.1
10 H  s               2.4       0.0       0.1       0.4       0.7       0.7
10 H  pz              0.2       0.1       0.0       0.0       0.0       0.0
10 H  px              4.1       0.4       0.2       0.0       0.0       0.4
10 H  py              6.4       0.2       0.3       0.4       0.3       0.7
11 N  s               1.3       0.1       0.1       2.9       0.1       3.4
11 N  px              0.2       0.1       0.7       0.9       0.1       0.2
11 N  py              0.7       0.1       0.5       0.8       0.0       0.3
11 N  dz2             1.3       0.2       0.1       3.2       0.0       2.0
11 N  dxz             0.2       0.0       6.4       0.3       0.2       5.0
11 N  dyz             0.0       0.3       0.0       0.9       0.0       1.2
11 N  dx2y2           0.6       0.0      15.5       0.3       0.2       5.8
11 N  dxy             1.3       2.3       2.2      12.3       0.0       6.8
12 N  s               1.3       0.1       0.1       2.9       0.1       3.4
12 N  px              0.7       0.1       0.5       0.9       0.0       0.3
12 N  py              0.2       0.1       0.6       0.8       0.2       0.1
12 N  dz2             0.8       0.1       1.3       2.3       0.1       4.8
12 N  dxz             1.3       0.0       1.7       1.6       0.0       0.0
12 N  dyz             0.0       0.4       1.7       1.3       0.0       0.2
12 N  dx2y2           0.4       0.2      19.5       0.9       0.3       5.0
12 N  dxy             0.9       2.2       0.1      10.8       0.1      10.8
13 C  s               0.1       0.0       0.8       0.3       0.1       0.2
13 C  pz              0.0       0.1       0.0       0.0       0.0       0.0
13 C  px              0.1       0.6       0.0       0.0       0.0       0.1
13 C  py              0.1       0.0       0.8       0.0       0.1       0.6
13 C  dz2             0.0       0.0       0.4       0.0       0.1       0.6
13 C  dxz             0.1       0.0       0.0       0.4       0.8       0.4
13 C  dyz             0.1       1.3       0.4       0.8       0.0       0.3
13 C  dx2y2           0.5       1.8       0.0       0.0       2.8       6.0
13 C  dxy             0.1       3.7       3.3       3.1       1.1       0.2
14 C  px              0.0       0.4       0.0       0.0       0.1       0.2
14 C  py              0.3       0.4       0.1       0.2       0.2       0.0
14 C  dz2             0.0       0.1       0.0       0.1       0.1       0.0
14 C  dxz             0.1       0.8       0.3       0.3       0.2       0.0
14 C  dyz             0.1       0.3       0.1       0.3       1.0       0.4
14 C  dx2y2           0.1       5.5       1.7       0.5       0.0       0.1
14 C  dxy             0.3       0.0       0.0       3.1       5.2       1.8
15 C  s               0.2       0.0       0.0       0.0       0.0       0.0
15 C  px              0.2       0.0       0.1       0.2       0.3       0.1
15 C  py              0.1       0.7       0.2       0.1       0.0       0.0
15 C  dz2             0.0       0.2       0.0       0.0       0.0       0.0
15 C  dxz             1.3       0.5       0.0       0.5       0.7       0.1
15 C  dyz             0.1       0.4       0.3       0.3       0.8       0.2
15 C  dx2y2           4.0       1.0       0.5       3.1       4.8       0.9
15 C  dxy             0.0       4.4       1.1       0.2       1.2       0.5
16 C  pz              0.0       0.2       0.0       0.0       0.0       0.0
16 C  px              0.2       0.6       0.0       0.0       0.0       0.0
16 C  py              0.2       0.0       0.3       0.2       0.4       0.1
16 C  dz2             0.1       0.0       0.3       0.2       0.3       0.1
16 C  dxz             0.4       0.0       0.3       0.5       1.0       0.2
16 C  dyz             0.6       1.1       0.1       0.0       0.0       0.0
16 C  dx2y2           4.1       1.6       1.2       2.7       4.6       0.8
16 C  dxy             0.3       3.4       2.5       0.6       1.9       0.6
17 C  px              0.3       0.4       0.1       0.1       0.2       0.0
17 C  py              0.3       0.3       0.2       0.0       0.2       0.1
17 C  dxz             0.4       0.8       0.5       0.0       0.2       0.1
17 C  dyz             0.1       0.2       0.2       0.6       1.2       0.4
17 C  dx2y2           1.6       4.8       0.6       0.1       0.0       0.0
17 C  dxy             0.0       0.0       2.1       2.3       5.7       1.8
18 C  s               0.9       0.0       0.1       0.0       0.0       0.1
18 C  pz              0.3       0.1       0.0       0.1       0.0       0.0
18 C  px              1.9       0.0       0.0       0.3       0.2       0.1
18 C  py              0.4       0.7       0.4       0.0       0.0       0.0
18 C  dz2             0.0       0.1       0.0       0.0       0.0       0.0
18 C  dxz             2.6       0.6       0.3       0.0       0.5       0.9
18 C  dyz             0.0       0.5       0.0       0.6       0.7       0.2
18 C  dx2y2           4.5       0.7       0.9       0.7       3.7       3.3
18 C  dxy             0.3       3.9       0.1       1.6       1.0       0.1
19 H  s               2.4       0.0       0.1       0.4       0.7       0.7
19 H  pz              0.7       0.1       0.0       0.1       0.1       0.1
19 H  px              6.6       0.1       0.3       0.4       0.3       0.7
19 H  py              3.4       0.5       0.2       0.0       0.0       0.3
20 H  s               0.1       0.0       0.0       0.4       0.8       0.3
20 H  pz              0.0       0.0       0.0       0.0       0.1       0.0
20 H  px              0.1       0.5       0.2       0.1       0.3       0.1
20 H  py              0.1       0.4       0.2       0.2       0.2       0.1
21 H  s               0.8       0.0       0.2       0.5       1.0       0.2
21 H  px              0.6       0.0       0.2       0.3       0.6       0.1
21 H  py              0.5       0.8       0.0       0.1       0.1       0.0
22 H  s               0.4       0.0       0.7       0.5       1.1       0.2
22 H  pz              0.1       0.2       0.0       0.0       0.0       0.0
22 H  px              0.7       0.6       0.0       0.1       0.1       0.0
22 H  py              0.2       0.0       0.6       0.3       0.7       0.1
23 H  s               0.0       0.0       0.4       0.4       1.0       0.3
23 H  pz              0.0       0.0       0.0       0.1       0.1       0.0
23 H  px              0.0       0.4       0.0       0.1       0.2       0.1
23 H  py              0.0       0.4       0.5       0.1       0.4       0.1



                      *****************************
                      * MAYER POPULATION ANALYSIS *
                      *****************************

  NA   - Mulliken gross atomic population
  ZA   - Total nuclear charge
  QA   - Mulliken gross atomic charge
  VA   - Mayer's total valence
  BVA  - Mayer's bonded valence
  FA   - Mayer's free valence

  ATOM       NA         ZA         QA         VA         BVA        FA
  0 C      5.9834     6.0000     0.0166     3.8076     3.8076    -0.0000
  1 C      5.9524     6.0000     0.0476     3.8199     3.8199    -0.0000
  2 C      5.9834     6.0000     0.0166     3.8421     3.8421     0.0000
  3 C      5.9960     6.0000     0.0040     3.8195     3.8195     0.0000
  4 C      5.8547     6.0000     0.1453     3.9058     3.9058     0.0000
  5 C      5.9759     6.0000     0.0241     3.8090     3.8090    -0.0000
  6 H      1.0239     1.0000    -0.0239     1.0111     1.0111     0.0000
  7 H      1.0123     1.0000    -0.0123     0.9785     0.9785    -0.0000
  8 H      1.0143     1.0000    -0.0143     0.9779     0.9779    -0.0000
  9 H      1.0226     1.0000    -0.0226     0.9760     0.9760     0.0000
 10 H      1.0640     1.0000    -0.0640     0.9773     0.9773    -0.0000
 11 N      7.1172     7.0000    -0.1172     2.8597     2.8597    -0.0000
 12 N      7.1172     7.0000    -0.1172     2.8597     2.8597    -0.0000
 13 C      5.8550     6.0000     0.1450     3.9062     3.9062    -0.0000
 14 C      5.9754     6.0000     0.0246     3.8090     3.8090     0.0000
 15 C      5.9835     6.0000     0.0165     3.8077     3.8077    -0.0000
 16 C      5.9526     6.0000     0.0474     3.8202     3.8202     0.0000
 17 C      5.9834     6.0000     0.0166     3.8420     3.8420     0.0000
 18 C      5.9962     6.0000     0.0038     3.8196     3.8196     0.0000
 19 H      1.0636     1.0000    -0.0636     0.9773     0.9773     0.0000
 20 H      1.0241     1.0000    -0.0241     1.0111     1.0111     0.0000
 21 H      1.0122     1.0000    -0.0122     0.9785     0.9785    -0.0000
 22 H      1.0143     1.0000    -0.0143     0.9778     0.9778     0.0000
 23 H      1.0225     1.0000    -0.0225     0.9759     0.9759     0.0000

  Mayer bond orders larger than 0.100000
B(  0-C ,  1-C ) :   1.3711 B(  0-C ,  5-C ) :   1.3633 B(  0-C ,  7-H ) :   0.9860 
B(  1-C ,  2-C ) :   1.3718 B(  1-C ,  8-H ) :   0.9881 B(  2-C ,  3-C ) :   1.3921 
B(  2-C ,  9-H ) :   0.9788 B(  3-C ,  4-C ) :   1.2917 B(  3-C , 10-H ) :   1.0045 
B(  4-C ,  5-C ) :   1.3568 B(  4-C , 11-N ) :   1.1144 B(  5-C ,  6-H ) :   0.9924 
B( 11-N , 12-N ) :   1.5536 B( 12-N , 13-C ) :   1.1144 B( 13-C , 14-C ) :   1.3569 
B( 13-C , 18-C ) :   1.2918 B( 14-C , 15-C ) :   1.3633 B( 14-C , 20-H ) :   0.9923 
B( 15-C , 16-C ) :   1.3712 B( 15-C , 21-H ) :   0.9860 B( 16-C , 17-C ) :   1.3720 
B( 16-C , 22-H ) :   0.9880 B( 17-C , 18-C ) :   1.3919 B( 17-C , 23-H ) :   0.9787 
B( 18-C , 19-H ) :   1.0045 

-------
TIMINGS
-------

Total SCF time: 0 days 0 hours 1 min 48 sec 

Total time                  ....     108.501 sec
Sum of individual times     ....     108.276 sec  ( 99.8%)

Fock matrix formation       ....     103.025 sec  ( 95.0%)
  Split-RI-J                ....       8.233 sec  (  8.0% of F)
  Chain of spheres X        ....      82.524 sec  ( 80.1% of F)
  XC integration            ....      12.230 sec  ( 11.9% of F)
    Basis function eval.    ....       5.042 sec  ( 41.2% of XC)
    Density eval.           ....       3.165 sec  ( 25.9% of XC)
    XC-Functional eval.     ....       1.167 sec  (  9.5% of XC)
    XC-Potential eval.      ....       2.539 sec  ( 20.8% of XC)
Diagonalization             ....       0.065 sec  (  0.1%)
Density matrix formation    ....       0.009 sec  (  0.0%)
Population analysis         ....       0.429 sec  (  0.4%)
Initial guess               ....       0.722 sec  (  0.7%)
Orbital Transformation      ....       0.000 sec  (  0.0%)
Orbital Orthonormalization  ....       0.000 sec  (  0.0%)
DIIS solution               ....       0.024 sec  (  0.0%)
SOSCF solution              ....       0.037 sec  (  0.0%)
Grid generation             ....       3.965 sec  (  3.7%)

Maximum memory used throughout the entire SCF-calculation: 94.1 MB


-------------------------------------------------------------------------------
                          DFT DISPERSION CORRECTION                            
                                                                               
                              DFTD3 V3.1  Rev 1                                
                          USING Becke-Johnson damping                          
-------------------------------------------------------------------------------
The B3LYP functional is recognized
Active option DFTDOPT                   ...         4   

C6 coefficients used: 
	2 C6 for element 	 1
Z=1  CN=    0.911800  	 C6(AA)=    3.026700
Z=1  CN=    0.000000  	 C6(AA)=    7.591600
	5 C6 for element 	 6
Z=6  CN=    0.000000  	 C6(AA)=   49.113000
Z=6  CN=    0.986800  	 C6(AA)=   43.245200
Z=6  CN=    1.998500  	 C6(AA)=   29.360200
Z=6  CN=    2.998700  	 C6(AA)=   25.780900
Z=6  CN=    3.984400  	 C6(AA)=   18.206700
	4 C6 for element 	 7
Z=7  CN=    0.000000  	 C6(AA)=   25.268500
Z=7  CN=    0.994400  	 C6(AA)=   22.124100
Z=7  CN=    2.014300  	 C6(AA)=   19.676800
Z=7  CN=    2.990300  	 C6(AA)=   15.581700

  #           XYZ [au]              r0(AA) [Ang.]  CN      C6(AA)     C8(AA)    C10(AA) [au]
  1  -17.67646    9.72905   -1.22095  c   1.455   3.126      25.4      733.4    25982.2
  2  -19.05537    7.75687   -2.30600  c   1.455   3.127      25.4      733.3    25978.5
  3  -18.04004    5.32134   -2.37750  c   1.455   3.125      25.4      733.4    25984.9
  4  -15.63877    4.85595   -1.37765  c   1.455   3.157      25.2      730.0    25862.2
  5  -14.21889    6.84319   -0.31124  c   1.455   3.145      25.3      731.3    25909.2
  6  -15.27494    9.27090   -0.21826  c   1.455   3.163      25.2      729.2    25833.4
  7  -14.22639   10.81316    0.62421  h   1.091   1.004       3.1       37.3      552.9
  8  -18.46988   11.61299   -1.15249  h   1.091   1.003       3.1       37.3      553.0
  9  -20.91549    8.11290   -3.07838  h   1.091   1.003       3.1       37.3      553.0
 10  -19.11823    3.78998   -3.19972  h   1.091   1.003       3.1       37.3      553.0
 11  -14.91138    2.94691   -1.42714  h   1.091   1.005       3.1       37.3      552.8
 12  -11.78036    6.46156    0.77598  n   1.311   2.092      19.5      430.8    11641.3
 13  -10.09764    4.86021    1.26366  n   1.311   2.092      19.5      430.8    11641.3
 14   -9.40352    2.26015    1.08474  c   1.455   3.145      25.3      731.3    25909.2
 15   -7.01241    1.53028    1.96086  c   1.455   3.163      25.2      729.2    25833.4
 16   -6.23084   -0.98801    1.78774  c   1.455   3.126      25.4      733.4    25982.2
 17   -7.82541   -2.79732    0.71447  c   1.455   3.127      25.4      733.3    25978.5
 18  -10.19811   -2.08802   -0.19933  c   1.455   3.125      25.4      733.4    25984.9
 19  -10.98675    0.42819   -0.02867  c   1.455   3.157      25.2      730.0    25862.1
 20  -12.81862    0.93264   -0.78089  h   1.091   1.005       3.1       37.3      552.8
 21   -5.75739    2.91757    2.79043  h   1.091   1.004       3.1       37.3      552.9
 22   -4.38649   -1.53544    2.48212  h   1.091   1.003       3.1       37.3      553.0
 23   -7.21713   -4.74533    0.57824  h   1.091   1.003       3.1       37.3      553.0
 24  -11.42419   -3.48705   -1.04965  h   1.091   1.003       3.1       37.3      553.0

molecular C6(AA) [au] = 7519.779799 


            DFT-D V3
 parameters
 s6 scaling factor         :     1.0000 
 a1 scaling factor         :     0.3981 
 s8 scaling factor         :     1.9889 
 a2 scaling factor         :     4.4211 
 ad hoc parameters k1-k3   :    16.0000     1.3333    -4.0000 

 Edisp/kcal,au: -30.255570536912  -0.048215315561 
 E6   /kcal   : -14.045619036 
 E8   /kcal   : -16.209951501 
 % E8         :  53.576750373 

-------------------------   ----------------
Dispersion correction           -0.048215316
-------------------------   ----------------


-------------------------   --------------------
FINAL SINGLE POINT ENERGY      -571.970728284410
-------------------------   --------------------


                            ***************************************
                            *     ORCA property calculations      *
                            ***************************************

                                    ---------------------
                                    Active property flags
                                    ---------------------
   (+) Dipole Moment


------------------------------------------------------------------------------
                       ORCA ELECTRIC PROPERTIES CALCULATION
------------------------------------------------------------------------------

Dipole Moment Calculation                       ... on
Quadrupole Moment Calculation                   ... off
Polarizability Calculation                      ... off
GBWName                                         ... Z_planar_azobenzene.gbw
Electron density                                ... Z_planar_azobenzene.scfp
SHARK General Contraction Test:  Segmented basis detected
   -> Pre-screening matrix found on disk - Trying to read with NShells=114
   -> Passing Pre-screening matrix on to SHARK ...ok
   -> Leaving CheckPreScreeningMatrix
----------------------
SHARK INTEGRAL PACKAGE
----------------------

Number of atoms                             ...     24
Number of basis functions                   ...    246
Number of shells                            ...    114
Maximum angular momentum                    ...      2
Integral batch strategy                     ... SHARK/LIBINT Hybrid
RI-J (if used) integral strategy            ... SPLIT-RIJ (Revised 2003 algorithm where possible)
Printlevel                                  ...      2
Contraction scheme used                     ... SEGMENTED contraction
Coulomb Range Separation                    ... NOT USED
Exchange Range Separation                   ... NOT USED
Finite Nucleus Model                        ... NOT USED
Auxiliary Coulomb fitting basis             ... AVAILABLE
   # of basis functions in Aux-J            ...    796
   # of shells in Aux-J                     ...    260
   Maximum angular momentum in Aux-J        ...      4
Auxiliary J/K fitting basis                 ... NOT available
Auxiliary Correlation fitting basis         ... NOT available
Auxiliary 'external' fitting basis          ... NOT available
Integral threshold                          ...     1.000000e-10
Primitive cut-off                           ...     1.000000e-11
Primitive pair pre-selection threshold      ...     1.000000e-11

The origin for moment calculation is the CENTER OF MASS  = (-12.386432,  3.820133 -0.030768)

-------------
DIPOLE MOMENT
-------------
                                X             Y             Z
Electronic contribution:      2.00452       2.54938       1.45492
Nuclear contribution   :     -2.66295      -3.38656      -1.93286
                        -----------------------------------------
Total Dipole Moment    :     -0.65843      -0.83718      -0.47793
                        -----------------------------------------
Magnitude (a.u.)       :      1.16740
Magnitude (Debye)      :      2.96730



--------------------
Rotational spectrum 
--------------------
 
Rotational constants in cm-1:     0.071440     0.010703     0.009309 
Rotational constants in MHz :  2141.727883   320.863274   279.075349 

 Dipole components along the rotational axes: 
x,y,z [a.u.] :    -0.000134    -1.167401     0.000044 
x,y,z [Debye]:    -0.000340    -2.967296     0.000111 

 

Timings for individual modules:

Sum of individual times         ...      108.810 sec (=   1.814 min)
GTO integral calculation        ...        0.290 sec (=   0.005 min)   0.3 %
SCF iterations                  ...      108.521 sec (=   1.809 min)  99.7 %
                             ****ORCA TERMINATED NORMALLY****
TOTAL RUN TIME: 0 days 0 hours 1 minutes 49 seconds 27 msec
