
                                 *****************
                                 * O   R   C   A *
                                 *****************

                                            #,                                       
                                            ###                                      
                                            ####                                     
                                            #####                                    
                                            ######                                   
                                           ########,                                 
                                     ,,################,,,,,                         
                               ,,#################################,,                 
                          ,,##########################################,,             
                       ,#########################################, ''#####,          
                    ,#############################################,,   '####,        
                  ,##################################################,,,,####,       
                ,###########''''           ''''###############################       
              ,#####''   ,,,,##########,,,,          '''####'''          '####       
            ,##' ,,,,###########################,,,                        '##       
           ' ,,###''''                  '''############,,,                           
         ,,##''                                '''############,,,,        ,,,,,,###''
      ,#''                                            '''#######################'''  
     '                                                          ''''####''''         
             ,#######,   #######,   ,#######,      ##                                
            ,#'     '#,  ##    ##  ,#'     '#,    #''#        ######   ,####,        
            ##       ##  ##   ,#'  ##            #'  '#       #        #'  '#        
            ##       ##  #######   ##           ,######,      #####,   #    #        
            '#,     ,#'  ##    ##  '#,     ,#' ,#      #,         ##   #,  ,#        
             '#######'   ##     ##  '#######'  #'      '#     #####' # '####'        



                  #######################################################
                  #                        -***-                        #
                  #          Department of theory and spectroscopy      #
                  #    Directorship and core code : Frank Neese         #
                  #        Max Planck Institute fuer Kohlenforschung    #
                  #                Kaiser Wilhelm Platz 1               #
                  #                 D-45470 Muelheim/Ruhr               #
                  #                      Germany                        #
                  #                                                     #
                  #                  All rights reserved                #
                  #                        -***-                        #
                  #######################################################


                         Program Version 5.0.3 -  RELEASE  -


 With contributions from (in alphabetic order):
   Daniel Aravena         : Magnetic Suceptibility
   Michael Atanasov       : Ab Initio Ligand Field Theory (pilot matlab implementation)
   Alexander A. Auer      : GIAO ZORA, VPT2 properties, NMR spectrum
   Ute Becker             : Parallelization
   Giovanni Bistoni       : ED, misc. LED, open-shell LED, HFLD
   Martin Brehm           : Molecular dynamics
   Dmytro Bykov           : SCF Hessian
   Vijay G. Chilkuri      : MRCI spin determinant printing, contributions to CSF-ICE
   Dipayan Datta          : RHF DLPNO-CCSD density
   Achintya Kumar Dutta   : EOM-CC, STEOM-CC
   Dmitry Ganyushin       : Spin-Orbit,Spin-Spin,Magnetic field MRCI
   Miquel Garcia          : C-PCM and meta-GGA Hessian, CC/C-PCM, Gaussian charge scheme
   Yang Guo               : DLPNO-NEVPT2, F12-NEVPT2, CIM, IAO-localization
   Andreas Hansen         : Spin unrestricted coupled pair/coupled cluster methods
   Benjamin Helmich-Paris : MC-RPA, TRAH-SCF, COSX integrals
   Lee Huntington         : MR-EOM, pCC
   Robert Izsak           : Overlap fitted RIJCOSX, COSX-SCS-MP3, EOM
   Marcus Kettner         : VPT2
   Christian Kollmar      : KDIIS, OOCD, Brueckner-CCSD(T), CCSD density, CASPT2, CASPT2-K
   Simone Kossmann        : Meta GGA functionals, TD-DFT gradient, OOMP2, MP2 Hessian
   Martin Krupicka        : Initial AUTO-CI
   Lucas Lang             : DCDCAS
   Marvin Lechner         : AUTO-CI (C++ implementation), FIC-MRCC
   Dagmar Lenk            : GEPOL surface, SMD
   Dimitrios Liakos       : Extrapolation schemes; Compound Job, initial MDCI parallelization
   Dimitrios Manganas     : Further ROCIS development; embedding schemes
   Dimitrios Pantazis     : SARC Basis sets
   Anastasios Papadopoulos: AUTO-CI, single reference methods and gradients
   Taras Petrenko         : DFT Hessian,TD-DFT gradient, ASA, ECA, R-Raman, ABS, FL, XAS/XES, NRVS
   Peter Pinski           : DLPNO-MP2, DLPNO-MP2 Gradient
   Christoph Reimann      : Effective Core Potentials
   Marius Retegan         : Local ZFS, SOC
   Christoph Riplinger    : Optimizer, TS searches, QM/MM, DLPNO-CCSD(T), (RO)-DLPNO pert. Triples
   Tobias Risthaus        : Range-separated hybrids, TD-DFT gradient, RPA, STAB
   Michael Roemelt        : Original ROCIS implementation
   Masaaki Saitow         : Open-shell DLPNO-CCSD energy and density
   Barbara Sandhoefer     : DKH picture change effects
   Avijit Sen             : IP-ROCIS
   Kantharuban Sivalingam : CASSCF convergence, NEVPT2, FIC-MRCI
   Bernardo de Souza      : ESD, SOC TD-DFT
   Georgi Stoychev        : AutoAux, RI-MP2 NMR, DLPNO-MP2 response
   Willem Van den Heuvel  : Paramagnetic NMR
   Boris Wezisla          : Elementary symmetry handling
   Frank Wennmohs         : Technical directorship


 We gratefully acknowledge several colleagues who have allowed us to
 interface, adapt or use parts of their codes:
   Stefan Grimme, W. Hujo, H. Kruse, P. Pracht,  : VdW corrections, initial TS optimization,
                  C. Bannwarth, S. Ehlert          DFT functionals, gCP, sTDA/sTD-DF
   Ed Valeev, F. Pavosevic, A. Kumar             : LibInt (2-el integral package), F12 methods
   Garnet Chan, S. Sharma, J. Yang, R. Olivares  : DMRG
   Ulf Ekstrom                                   : XCFun DFT Library
   Mihaly Kallay                                 : mrcc  (arbitrary order and MRCC methods)
   Jiri Pittner, Ondrej Demel                    : Mk-CCSD
   Frank Weinhold                                : gennbo (NPA and NBO analysis)
   Christopher J. Cramer and Donald G. Truhlar   : smd solvation model
   Lars Goerigk                                  : TD-DFT with DH, B97 family of functionals
   V. Asgeirsson, H. Jonsson                     : NEB implementation
   FAccTs GmbH                                   : IRC, NEB, NEB-TS, DLPNO-Multilevel, CI-OPT
                                                   MM, QMMM, 2- and 3-layer-ONIOM, Crystal-QMMM,
                                                   LR-CPCM, SF, NACMEs, symmetry and pop. for TD-DFT,
                                                   nearIR, NL-DFT gradient (VV10), updates on ESD,
                                                   ML-optimized integration grids
   S Lehtola, MJT Oliveira, MAL Marques          : LibXC Library
   Liviu Ungur et al                             : ANISO software


 Your calculation uses the libint2 library for the computation of 2-el integrals
 For citations please refer to: http://libint.valeyev.net

 Your ORCA version has been built with support for libXC version: 5.1.0
 For citations please refer to: https://tddft.org/programs/libxc/

 This ORCA versions uses:
   CBLAS   interface :  Fast vector & matrix operations
   LAPACKE interface :  Fast linear algebra routines
   SCALAPACK package :  Parallel linear algebra routines
   Shared memory     :  Shared parallel matrices
   BLAS/LAPACK       :  OpenBLAS 0.3.15  USE64BITINT DYNAMIC_ARCH NO_AFFINITY Zen SINGLE_THREADED
        Core in use  :  Zen
   Copyright (c) 2011-2014, The OpenBLAS Project


Your calculation utilizes the atom-pairwise dispersion correction
with the Becke-Johnson damping scheme (D3BJ)
Cite in your paper:
S.Grimme, S.Ehrlich, L.Goerigk, J Comput Chem, (2011), 32, 1456–1465 
S.Grimme, J.Antony, S.Ehrlich and H.Krieg, J.Chem.Phys., 132, (2010), 154104 
   

================================================================================

----- Orbital basis set information -----
Your calculation utilizes the basis: def2-SVP
   F. Weigend and R. Ahlrichs, Phys. Chem. Chem. Phys. 7, 3297 (2005).

----- AuxJ basis set information -----
Your calculation utilizes the auxiliary basis: def2/J
   F. Weigend, Phys. Chem. Chem. Phys. 8, 1057 (2006).

================================================================================
                                        WARNINGS
                       Please study these warnings very carefully!
================================================================================


INFO   : the flag for use of the SHARK integral package has been found!

================================================================================
                                       INPUT FILE
================================================================================
NAME = Z_T_azobenzene.inp
|  1> ! B3LYP D3BJ RIJCOSX def2/J def2-SVP LargePrint SP
|  2> %Pal NProcs 1 end
|  3> %MaxCore 4000
|  4> %SCF
|  5>     AutoTRAH    True
|  6>     CNVDamp     True
|  7>     CNVZerner   False
|  8>     end
|  9> %method
| 10>     FrozenCore FC_ELECTRONS
| 11>     end
| 12> *xyz 0 1
| 13> C            -9.48119000     4.17287000    -0.29199000
| 14> C            -9.54206000     3.34677000    -1.41677000
| 15> C            -8.39726000     2.67498000    -1.85191000
| 16> C            -7.19158000     2.82174000    -1.15900000
| 17> C            -7.12587000     3.63870000    -0.01134000
| 18> C            -8.27722000     4.32256000     0.40324000
| 19> H            -8.24120000     4.96850000     1.27167000
| 20> H           -10.36649000     4.69947000     0.04031000
| 21> H           -10.47404000     3.23312000    -1.95524000
| 22> H            -8.44255000     2.04378000    -2.73001000
| 23> H            -6.31631000     2.30455000    -1.52751000
| 24> N            -5.91569000     3.84220000     0.71734000
| 25> N            -5.49189000     3.15570000     1.68000000
| 26> C            -6.12454000     2.01675000     2.26263000
| 27> C            -5.51985000     1.41358000     3.37425000
| 28> C            -6.11313000     0.30898000     3.99325000
| 29> C            -7.32416000    -0.19560000     3.51358000
| 30> C            -7.94698000     0.40826000     2.41875000
| 31> C            -7.35653000     1.51272000     1.79677000
| 32> H            -7.86854000     1.97214000     0.96241000
| 33> H            -4.58276000     1.79823000     3.75716000
| 34> H            -5.63473000    -0.15425000     4.84649000
| 35> H            -7.78342000    -1.04947000     3.99465000
| 36> H            -8.89086000     0.02357000     2.05457000
| 37> *
| 38> 
| 39>                          ****END OF INPUT****
================================================================================

                       ****************************
                       * Single Point Calculation *
                       ****************************

---------------------------------
CARTESIAN COORDINATES (ANGSTROEM)
---------------------------------
  C     -9.481190    4.172870   -0.291990
  C     -9.542060    3.346770   -1.416770
  C     -8.397260    2.674980   -1.851910
  C     -7.191580    2.821740   -1.159000
  C     -7.125870    3.638700   -0.011340
  C     -8.277220    4.322560    0.403240
  H     -8.241200    4.968500    1.271670
  H    -10.366490    4.699470    0.040310
  H    -10.474040    3.233120   -1.955240
  H     -8.442550    2.043780   -2.730010
  H     -6.316310    2.304550   -1.527510
  N     -5.915690    3.842200    0.717340
  N     -5.491890    3.155700    1.680000
  C     -6.124540    2.016750    2.262630
  C     -5.519850    1.413580    3.374250
  C     -6.113130    0.308980    3.993250
  C     -7.324160   -0.195600    3.513580
  C     -7.946980    0.408260    2.418750
  C     -7.356530    1.512720    1.796770
  H     -7.868540    1.972140    0.962410
  H     -4.582760    1.798230    3.757160
  H     -5.634730   -0.154250    4.846490
  H     -7.783420   -1.049470    3.994650
  H     -8.890860    0.023570    2.054570

----------------------------
CARTESIAN COORDINATES (A.U.)
----------------------------
  NO LB      ZA    FRAG     MASS         X           Y           Z
   0 C     6.0000    0    12.011  -17.916853    7.885581   -0.551781
   1 C     6.0000    0    12.011  -18.031880    6.324479   -2.677307
   2 C     6.0000    0    12.011  -15.868522    5.054980   -3.499603
   3 C     6.0000    0    12.011  -13.590117    5.332316   -2.190193
   4 C     6.0000    0    12.011  -13.465943    6.876146   -0.021429
   5 C     6.0000    0    12.011  -15.641679    8.168455    0.762013
   6 H     1.0000    0     1.008  -15.573611    9.389104    2.403108
   7 H     1.0000    0     1.008  -19.589827    8.880711    0.076175
   8 H     1.0000    0     1.008  -19.793067    6.109711   -3.694868
   9 H     1.0000    0     1.008  -15.954107    3.862184   -5.158971
  10 H     1.0000    0     1.008  -11.936096    4.354968   -2.886576
  11 N     7.0000    0    14.007  -11.179034    7.260706    1.355576
  12 N     7.0000    0    14.007  -10.378168    5.963409    3.174740
  13 C     6.0000    0    12.011  -11.573703    3.811105    4.275751
  14 C     6.0000    0    12.011  -10.431005    2.671279    6.376408
  15 C     6.0000    0    12.011  -11.552142    0.583888    7.546149
  16 C     6.0000    0    12.011  -13.840657   -0.369630    6.639704
  17 C     6.0000    0    12.011  -15.017616    0.771500    4.570775
  18 C     6.0000    0    12.011  -13.901827    2.858627    3.395403
  19 H     1.0000    0     1.008  -14.869386    3.726804    1.818691
  20 H     1.0000    0     1.008   -8.660161    3.398162    7.100003
  21 H     1.0000    0     1.008  -10.648097   -0.291490    9.158539
  22 H     1.0000    0     1.008  -14.708532   -1.983211    7.548795
  23 H     1.0000    0     1.008  -16.801290    0.044541    3.882575

--------------------------------
INTERNAL COORDINATES (ANGSTROEM)
--------------------------------
 C      0   0   0     0.000000000000     0.00000000     0.00000000
 C      1   0   0     1.396880959602     0.00000000     0.00000000
 C      2   1   0     1.396859213987   119.96933627     0.00000000
 C      3   2   1     1.398330085531   120.11938546     0.36834860
 C      4   3   2     1.410271222602   120.28002828     0.53835992
 C      1   2   3     1.398318851300   120.07735307   359.65657023
 H      6   1   2     1.082915781074   119.41996565   179.77744993
 H      1   2   3     1.082352502653   119.95369847   179.51334590
 H      2   1   3     1.082336816245   120.01436848   180.45962386
 H      3   2   1     1.082369730776   119.92665368   180.68366422
 H      4   3   2     1.081379992926   118.60888961   181.08353167
 N      5   4   3     1.427207912254   122.52022859   181.19747935
 N     12   5   4     1.256026657997   126.83298672   269.95484755
 C     13  12   5     1.427203854360   126.83327159     0.00000000
 C     14  13  12     1.401842740610   118.41620886   182.65497992
 C     15  14  13     1.398314456194   120.52437922   178.94092889
 C     16  15  14     1.396881507573   120.07737161   359.40523238
 C     17  16  15     1.396855175349   119.96930425   359.65744970
 C     18  17  16     1.398328364334   120.11951582     0.36725535
 H     19  18  17     1.081377633438   118.60905998   181.08402881
 H     15  14  13     1.082918906798   120.05444851   358.56673724
 H     16  15  14     1.082343333005   119.96879743   179.54930815
 H     17  16  15     1.082331774180   120.01417450   180.11641466
 H     18  17  16     1.082369125068   119.92682598   180.68406275

---------------------------
INTERNAL COORDINATES (A.U.)
---------------------------
 C      0   0   0     0.000000000000     0.00000000     0.00000000
 C      1   0   0     2.639722455338     0.00000000     0.00000000
 C      2   1   0     2.639681362080   119.96933627     0.00000000
 C      3   2   1     2.642460906476   120.11938546     0.36834860
 C      4   3   2     2.665026385269   120.28002828     0.53835992
 C      1   2   3     2.642439676856   120.07735307   359.65657023
 H      6   1   2     2.046414252332   119.41996565   179.77744993
 H      1   2   3     2.045349810379   119.95369847   179.51334590
 H      2   1   3     2.045320167364   120.01436848   180.45962386
 H      3   2   1     2.045382366813   119.92665368   180.68366422
 H      4   3   2     2.043512033331   118.60888961   181.08353167
 N      5   4   3     2.697032090325   122.52022859   181.19747935
 N     12   5   4     2.373546400519   126.83298672   269.95484755
 C     13  12   5     2.697024422017   126.83327159     0.00000000
 C     14  13  12     2.649098862578   118.41620886   182.65497992
 C     15  14  13     2.642431371309   120.52437922   178.94092889
 C     16  15  14     2.639723490852   120.07737161   359.40523238
 C     17  16  15     2.639673730161   119.96930425   359.65744970
 C     18  17  16     2.642457653885   120.11951582     0.36725535
 H     19  18  17     2.043507574546   118.60905998   181.08402881
 H     15  14  13     2.046420159093   120.05444851   358.56673724
 H     16  15  14     2.045332482255   119.96879743   179.54930815
 H     17  16  15     2.045310639242   120.01417450   180.11641466
 H     18  17  16     2.045381222190   119.92682598   180.68406275

---------------------
BASIS SET INFORMATION
---------------------
There are 3 groups of distinct atoms

 Group   1 Type C   : 7s4p1d contracted to 3s2p1d pattern {511/31/1}
 Group   2 Type H   : 4s1p contracted to 2s1p pattern {31/1}
 Group   3 Type N   : 7s4p1d contracted to 3s2p1d pattern {511/31/1}

Atom   0C    basis set group =>   1
Atom   1C    basis set group =>   1
Atom   2C    basis set group =>   1
Atom   3C    basis set group =>   1
Atom   4C    basis set group =>   1
Atom   5C    basis set group =>   1
Atom   6H    basis set group =>   2
Atom   7H    basis set group =>   2
Atom   8H    basis set group =>   2
Atom   9H    basis set group =>   2
Atom  10H    basis set group =>   2
Atom  11N    basis set group =>   3
Atom  12N    basis set group =>   3
Atom  13C    basis set group =>   1
Atom  14C    basis set group =>   1
Atom  15C    basis set group =>   1
Atom  16C    basis set group =>   1
Atom  17C    basis set group =>   1
Atom  18C    basis set group =>   1
Atom  19H    basis set group =>   2
Atom  20H    basis set group =>   2
Atom  21H    basis set group =>   2
Atom  22H    basis set group =>   2
Atom  23H    basis set group =>   2

-------------------------
BASIS SET IN INPUT FORMAT
-------------------------

 # Basis set for element : H 
 NewGTO H 
 S 3 
   1      13.0107010000      0.0334854848
   2       1.9622572000      0.2347218709
   3       0.4445379600      0.8137702853
 S 1 
   1       0.1219496200      1.0000000000
 P 1 
   1       0.8000000000      1.0000000000
  end;

 # Basis set for element : C 
 NewGTO C 
 S 5 
   1    1238.4016938000      0.0055173650
   2     186.2900499200      0.0410888285
   3      42.2511763460      0.1822538213
   4      11.6765579320      0.4682845944
   5       3.5930506482      0.4457581734
 S 1 
   1       0.4024514736      1.0000000000
 S 1 
   1       0.1309018267      1.0000000000
 P 3 
   1       9.4680970621      0.0568883320
   2       2.0103545142      0.3129405934
   3       0.5477100471      0.7606501651
 P 1 
   1       0.1526861379      1.0000000000
 D 1 
   1       0.8000000000      1.0000000000
  end;

 # Basis set for element : N 
 NewGTO N 
 S 5 
   1    1712.8415853000     -0.0054477995
   2     257.6481267700     -0.0406271746
   3      58.4582458530     -0.1811196225
   4      16.1983679050     -0.4684397556
   5       5.0052600809     -0.4461684629
 S 1 
   1       0.5873185657      1.0000000000
 S 1 
   1       0.1876459225      1.0000000000
 P 3 
   1      13.5714702330     -0.0588481170
   2       2.9257372874     -0.3202462476
   3       0.7992775075     -0.7532822652
 P 1 
   1       0.2195434803      1.0000000000
 D 1 
   1       1.0000000000      1.0000000000
  end;

---------------------------------
AUXILIARY/J BASIS SET INFORMATION
---------------------------------
There are 3 groups of distinct atoms

 Group   1 Type C   : 12s5p4d2f1g contracted to 6s4p3d1f1g pattern {711111/2111/211/2/1}
 Group   2 Type H   : 5s2p1d contracted to 3s1p1d pattern {311/2/1}
 Group   3 Type N   : 12s5p4d2f1g contracted to 6s4p3d1f1g pattern {711111/2111/211/2/1}

Atom   0C    basis set group =>   1
Atom   1C    basis set group =>   1
Atom   2C    basis set group =>   1
Atom   3C    basis set group =>   1
Atom   4C    basis set group =>   1
Atom   5C    basis set group =>   1
Atom   6H    basis set group =>   2
Atom   7H    basis set group =>   2
Atom   8H    basis set group =>   2
Atom   9H    basis set group =>   2
Atom  10H    basis set group =>   2
Atom  11N    basis set group =>   3
Atom  12N    basis set group =>   3
Atom  13C    basis set group =>   1
Atom  14C    basis set group =>   1
Atom  15C    basis set group =>   1
Atom  16C    basis set group =>   1
Atom  17C    basis set group =>   1
Atom  18C    basis set group =>   1
Atom  19H    basis set group =>   2
Atom  20H    basis set group =>   2
Atom  21H    basis set group =>   2
Atom  22H    basis set group =>   2
Atom  23H    basis set group =>   2

-------------------------------------
AUXILIARY/J BASIS SET IN INPUT FORMAT
-------------------------------------

 # Auxiliary/J basis set for element : H 
 NewAuxJGTO H 
 S 3 
   1      15.6752927000      0.1007184237
   2       3.6063578000      0.3404257499
   3       1.2080016000      0.6491996172
 S 1 
   1       0.4726794000      1.0000000000
 S 1 
   1       0.2018100000      1.0000000000
 P 2 
   1       2.0281365000      0.5596620919
   2       0.5358730000      0.5596620919
 D 1 
   1       2.2165124000      1.0000000000
  end;

 # Auxiliary/J basis set for element : C 
 NewAuxJGTO C 
 S 7 
   1    1861.0916331000      0.0134602335
   2     642.9939764000      0.0299160374
   3     235.1105725000      0.1008649584
   4      90.7028894000      0.2370970548
   5      36.7794552000      0.3924037254
   6      15.6046273000      0.3195862154
   7       6.8907294000      0.0530104441
 S 1 
   1       3.1478850000     -1.0000000000
 S 1 
   1       1.4777287000      1.0000000000
 S 1 
   1       0.7076466000      1.0000000000
 S 1 
   1       0.3430122000      1.0000000000
 S 1 
   1       0.1669453000      1.0000000000
 P 2 
   1      13.5472892000     -0.6769313712
   2       5.4669419000     -0.3779500978
 P 1 
   1       2.1751721000      1.0000000000
 P 1 
   1       0.8582194000      1.0000000000
 P 1 
   1       0.3376720000      1.0000000000
 D 2 
   1       5.9287253000     -0.3533329857
   2       1.9809209000     -0.7456525731
 D 1 
   1       0.8055417000     -1.0000000000
 D 1 
   1       0.3531244000     -1.0000000000
 F 2 
   1       1.6755626000      0.6311076882
   2       0.5997536000      0.4968166032
 G 1 
   1       1.0024600000     -1.0000000000
  end;

 # Auxiliary/J basis set for element : N 
 NewAuxJGTO N 
 S 7 
   1    2542.9401785000      0.0128431329
   2    1029.5472946000      0.0206655120
   3     424.9053546000      0.0652200677
   4     178.4573708000      0.1617388940
   5      76.1362742000      0.3094256941
   6      32.9338653000      0.3918849307
   7      14.4155436000      0.1822470660
 S 1 
   1       6.3718891000     -1.0000000000
 S 1 
   1       2.8381742000      1.0000000000
 S 1 
   1       1.2711793000      1.0000000000
 S 1 
   1       0.5712407000      1.0000000000
 S 1 
   1       0.2569887000      1.0000000000
 P 2 
   1      17.8975990000     -1.0974070137
   2       6.5346319000      0.1380055963
 P 1 
   1       2.3523645000      1.0000000000
 P 1 
   1       0.8397377000      1.0000000000
 P 1 
   1       0.2989335000      1.0000000000
 D 2 
   1       7.6909870000      0.1770780943
   2       2.3044972000      0.8918319220
 D 1 
   1       0.8403987000      1.0000000000
 D 1 
   1       0.3303797000      1.0000000000
 F 2 
   1       2.3331076000      0.6223178877
   2       0.8446137000      0.5036714203
 G 1 
   1       1.4037700000     -1.0000000000
  end;

------------------------------------------------------------------------------
                           ORCA GTO INTEGRAL CALCULATION
                           -- RI-GTO INTEGRALS CHOSEN --
------------------------------------------------------------------------------
------------------------------------------------------------------------------
                   ___                                                        
                  /   \      - P O W E R E D   B Y -                         
                 /     \                                                     
                 |  |  |   _    _      __       _____    __    __             
                 |  |  |  | |  | |    /  \     |  _  \  |  |  /  |          
                  \  \/   | |  | |   /    \    | | | |  |  | /  /          
                 / \  \   | |__| |  /  /\  \   | |_| |  |  |/  /          
                |  |  |   |  __  | /  /__\  \  |    /   |      \           
                |  |  |   | |  | | |   __   |  |    \   |  |\   \          
                \     /   | |  | | |  |  |  |  | |\  \  |  | \   \       
                 \___/    |_|  |_| |__|  |__|  |_| \__\ |__|  \__/        
                                                                              
                      - O R C A' S   B I G   F R I E N D -                    
                                      &                                       
                       - I N T E G R A L  F E E D E R -                       
                                                                              
 v1 FN, 2020, v2 2021                                                         
------------------------------------------------------------------------------


Reading SHARK input file Z_T_azobenzene.SHARKINP.tmp ... SHARK General Contraction Test:  Segmented basis detected
   -> Pre-screening matrix *NOT* found on disk - recalculating with NShells=114
   -> Leaving CheckPreScreeningMatrix
ok
----------------------
SHARK INTEGRAL PACKAGE
----------------------

Number of atoms                             ...     24
Number of basis functions                   ...    246
Number of shells                            ...    114
Maximum angular momentum                    ...      2
Integral batch strategy                     ... SHARK/LIBINT Hybrid
RI-J (if used) integral strategy            ... SPLIT-RIJ (Revised 2003 algorithm where possible)
Printlevel                                  ...      2
Contraction scheme used                     ... SEGMENTED contraction
Coulomb Range Separation                    ... NOT USED
Exchange Range Separation                   ... NOT USED
Finite Nucleus Model                        ... NOT USED
Auxiliary Coulomb fitting basis             ... AVAILABLE
   # of basis functions in Aux-J            ...    796
   # of shells in Aux-J                     ...    260
   Maximum angular momentum in Aux-J        ...      4
Auxiliary J/K fitting basis                 ... NOT available
Auxiliary Correlation fitting basis         ... NOT available
Auxiliary 'external' fitting basis          ... NOT available
Integral threshold                          ...     1.000000e-10
Primitive cut-off                           ...     1.000000e-11
Primitive pair pre-selection threshold      ...     1.000000e-11

Calculating pre-screening integrals         ... done (  0.0 sec) Dimension = 114
Organizing shell pair data                  ... done (  0.1 sec)
Shell pair information
Total number of shell pairs                 ...      6555
Shell pairs after pre-screening             ...      5567
Total number of primitive shell pairs       ...     24083
Primitive shell pairs kept                  ...     13910
          la=0 lb=0:   1681 shell pairs
          la=1 lb=0:   2022 shell pairs
          la=1 lb=1:    649 shell pairs
          la=2 lb=0:    705 shell pairs
          la=2 lb=1:    433 shell pairs
          la=2 lb=2:     77 shell pairs

Calculating one electron integrals          ... done (  0.0 sec)
Calculating RI/J V-Matrix + Cholesky decomp.... done (  0.0 sec)
Calculating Nuclear repulsion               ... done (  0.0 sec) ENN=    786.822174996799 Eh

SHARK setup successfully completed in   0.3 seconds

Maximum memory used throughout the entire GTOINT-calculation: 40.6 MB
-------------------------------------------------------------------------------
                                 ORCA SCF
-------------------------------------------------------------------------------

------------
SCF SETTINGS
------------
Hamiltonian:
 Density Functional     Method          .... DFT(GTOs)
 Exchange Functional    Exchange        .... B88
   X-Alpha parameter    XAlpha          ....  0.666667
   Becke's b parameter  XBeta           ....  0.004200
 Correlation Functional Correlation     .... LYP
 LDA part of GGA corr.  LDAOpt          .... VWN-5
 Gradients option       PostSCFGGA      .... off
 Hybrid DFT is turned on
   Fraction HF Exchange ScalHFX         ....  0.200000
   Scaling of DF-GGA-X  ScalDFX         ....  0.720000
   Scaling of DF-GGA-C  ScalDFC         ....  0.810000
   Scaling of DF-LDA-C  ScalLDAC        ....  1.000000
   Perturbative correction              ....  0.000000
   Density functional embedding theory  .... OFF
   NL short-range parameter             ....  4.800000
 RI-approximation to the Coulomb term is turned on
   Number of AuxJ basis functions       .... 796
   RIJ-COSX (HFX calculated with COS-X)).... on


General Settings:
 Integral files         IntName         .... Z_T_azobenzene
 Hartree-Fock type      HFTyp           .... RHF
 Total Charge           Charge          ....    0
 Multiplicity           Mult            ....    1
 Number of Electrons    NEL             ....   96
 Basis Dimension        Dim             ....  246
 Nuclear Repulsion      ENuc            ....    786.8221749968 Eh

Convergence Acceleration:
 DIIS                   CNVDIIS         .... on
   Start iteration      DIISMaxIt       ....    12
   Startup error        DIISStart       ....  0.200000
   # of expansion vecs  DIISMaxEq       ....     5
   Bias factor          DIISBfac        ....   1.050
   Max. coefficient     DIISMaxC        ....  10.000
 Trust-Rad. Augm. Hess. CNVTRAH         .... auto
   Auto Start mean grad. ratio tolernc. ....  1.125000
   Auto Start start iteration           ....    20
   Auto Start num. interpolation iter.  ....    10
   Max. Number of Micro iterations      ....    16
   Max. Number of Macro iterations      .... Maxiter - #DIIS iter
   Number of Davidson start vectors     ....     2
   Converg. threshold I  (grad. norm)   ....   5.000e-05
   Converg. threshold II (energy diff.) ....   1.000e-06
   Grad. Scal. Fac. for Micro threshold ....   0.100
   Minimum threshold for Micro iter.    ....   0.010
   NR start threshold (gradient norm)   ....   0.001
   Initial trust radius                 ....   0.400
   Minimum AH scaling param. (alpha)    ....   1.000
   Maximum AH scaling param. (alpha)    .... 1000.000
   Orbital update algorithm             .... Taylor
   White noise on init. David. guess    .... on
   Maximum white noise                  ....   0.010
   Quad. conv. algorithm                .... NR
 SOSCF                  CNVSOSCF        .... on
   Start iteration      SOSCFMaxIt      ....   150
   Startup grad/error   SOSCFStart      ....  0.003300
 Level Shifting         CNVShift        .... on
   Level shift para.    LevelShift      ....    0.2500
   Turn off err/grad.   ShiftErr        ....    0.0010
 Zerner damping         CNVZerner       .... off
 Static damping         CNVDamp         .... on
   Fraction old density DampFac         ....    0.7000
   Max. Damping (<1)    DampMax         ....    0.9800
   Min. Damping (>=0)   DampMin         ....    0.0000
   Turn off err/grad.   DampErr         ....    0.1000
 Fernandez-Rico         CNVRico         .... off

SCF Procedure:
 Maximum # iterations   MaxIter         ....   125
 SCF integral mode      SCFMode         .... Direct
   Integral package                     .... SHARK and LIBINT hybrid scheme
 Reset frequency        DirectResetFreq ....    20
 Integral Threshold     Thresh          ....  1.000e-10 Eh
 Primitive CutOff       TCut            ....  1.000e-11 Eh

Convergence Tolerance:
 Convergence Check Mode ConvCheckMode   .... Total+1el-Energy
 Convergence forced     ConvForced      .... 0
 Energy Change          TolE            ....  1.000e-06 Eh
 1-El. energy change                    ....  1.000e-03 Eh
 Orbital Gradient       TolG            ....  5.000e-05
 Orbital Rotation angle TolX            ....  5.000e-05
 DIIS Error             TolErr          ....  1.000e-06


Diagonalization of the overlap matrix:
Smallest eigenvalue                        ... 2.576e-04
Time for diagonalization                   ...    0.110 sec
Threshold for overlap eigenvalues          ... 1.000e-08
Number of eigenvalues below threshold      ... 0
Time for construction of square roots      ...    0.003 sec
Total time needed                          ...    0.113 sec

SHARK General Contraction Test:  Segmented basis detected
   -> Pre-screening matrix found on disk - Trying to read with NShells=114
   -> Passing Pre-screening matrix on to SHARK ...ok
   -> Leaving CheckPreScreeningMatrix
----------------------
SHARK INTEGRAL PACKAGE
----------------------

Number of atoms                             ...     24
Number of basis functions                   ...    246
Number of shells                            ...    114
Maximum angular momentum                    ...      2
Integral batch strategy                     ... SHARK/LIBINT Hybrid
RI-J (if used) integral strategy            ... SPLIT-RIJ (Revised 2003 algorithm where possible)
Printlevel                                  ...      2
Contraction scheme used                     ... SEGMENTED contraction
Coulomb Range Separation                    ... NOT USED
Exchange Range Separation                   ... NOT USED
Finite Nucleus Model                        ... NOT USED
Auxiliary Coulomb fitting basis             ... AVAILABLE
   # of basis functions in Aux-J            ...    796
   # of shells in Aux-J                     ...    260
   Maximum angular momentum in Aux-J        ...      4
Auxiliary J/K fitting basis                 ... NOT available
Auxiliary Correlation fitting basis         ... NOT available
Auxiliary 'external' fitting basis          ... NOT available
Integral threshold                          ...     1.000000e-10
Primitive cut-off                           ...     1.000000e-11
Primitive pair pre-selection threshold      ...     1.000000e-11

Time for model grid setup =    0.456 sec

------------------------------
INITIAL GUESS: MODEL POTENTIAL
------------------------------
Loading Hartree-Fock densities                     ... done
Calculating cut-offs                               ... done
Initializing the effective Hamiltonian             ... done
Setting up the integral package (SHARK)            ... done
Starting the Coulomb interaction                   ...     -> Generating integrals - 
    -> L=0 0 :     0.092 sec done=    324848 skipped=      9592 prim-skipped=         0
    -> L=1 0 :     0.143 sec done=    392732 skipped=     10764 prim-skipped=         0
    -> L=1 1 :     0.093 sec done=    125782 skipped=      3012 prim-skipped=         0
    -> L=2 0 :     0.042 sec done=    135972 skipped=      4094 prim-skipped=         0
    -> L=2 1 :     0.041 sec done=     83766 skipped=      1802 prim-skipped=         0
    -> L=2 2 :     0.010 sec done=     14796 skipped=       410 prim-skipped=         0
done (   0.5 sec)
Reading the grid                                   ... done
Mapping shells                                     ... done
Starting the XC term evaluation                    ... done (   0.4 sec)
  promolecular density results
     # of electrons  =     96.006104180
     EX              =    -77.759087253
     EC              =     -3.232907673
     EX+EC           =    -80.991994926
Transforming the Hamiltonian                       ... done (   0.0 sec)
Diagonalizing the Hamiltonian                      ... done (   0.0 sec)
Back transforming the eigenvectors                 ... done (   0.0 sec)
Now organizing SCF variables                       ... done
                      ------------------
                      INITIAL GUESS DONE (   1.4 sec)
                      ------------------
----------------------
INITIAL GUESS ORBITALS
----------------------
                      0         1         2         3         4         5   
                 -14.19553 -14.19541 -10.10103 -10.10097 -10.10075 -10.10074
                   2.00000   2.00000   2.00000   2.00000   2.00000   2.00000
                  --------  --------  --------  --------  --------  --------
  0C   1s         0.000024 -0.000010  0.367525  0.030535  0.134695  0.591401
  0C   2s        -0.000777  0.000349  0.016297  0.001173  0.007327  0.030057
  0C   3s         0.006023 -0.000916  0.006759  0.000031 -0.000938 -0.015777
  0C   1pz       -0.000058  0.000022  0.001803  0.000194 -0.000237  0.000190
  0C   1px       -0.000135  0.000069  0.000193  0.000013 -0.000096 -0.000025
  0C   1py        0.000088 -0.000017  0.000967  0.000123 -0.000183  0.000186
  0C   2pz        0.001504 -0.000534  0.004087 -0.000203  0.000381 -0.000998
  0C   2px        0.004015 -0.001133  0.004514  0.000128  0.001044 -0.006642
  0C   2py       -0.000125  0.000095  0.002244 -0.000222 -0.000268  0.001282
  0C   1dz2       0.000029 -0.000017 -0.000744 -0.000078  0.000060 -0.000190
  0C   1dxz       0.000135 -0.000053 -0.000170 -0.000016  0.000027  0.000104
  0C   1dyz       0.000172 -0.000072 -0.000671 -0.000091  0.000436  0.000864
  0C   1dx2y2     0.000100 -0.000053  0.000741  0.000074  0.000110  0.000669
  0C   1dxy       0.000032 -0.000016 -0.000488 -0.000039 -0.000217 -0.000601
  1C   1s         0.000025 -0.000005  0.825087  0.084537 -0.097286  0.095574
  1C   2s        -0.000214  0.000029  0.040162  0.004013 -0.005381  0.005583
  1C   3s        -0.002696  0.001100 -0.019599 -0.002653  0.002552 -0.006749
  1C   1pz       -0.000094  0.000006 -0.000234 -0.000032 -0.000239 -0.001983
  1C   1px       -0.000065  0.000025 -0.000722 -0.000086  0.000023  0.001598
  1C   1py        0.000033  0.000025 -0.000207 -0.000014 -0.000231 -0.001939
  1C   2pz       -0.000359  0.000041 -0.002887 -0.000294 -0.000751 -0.002969
  1C   2px       -0.002340  0.000952 -0.004360 -0.000363 -0.000426  0.001202
  1C   2py        0.000233 -0.000433 -0.000462 -0.000065 -0.000202 -0.002644
  1C   1dz2       0.000005  0.000005 -0.000149 -0.000013 -0.000094 -0.000958
  1C   1dxz      -0.000033  0.000009  0.001097  0.000107 -0.000127 -0.000532
  1C   1dyz       0.000047 -0.000006  0.000664  0.000085 -0.000428 -0.000243
  1C   1dx2y2    -0.000006  0.000001  0.001102  0.000112 -0.000110  0.001008
  1C   1dxy      -0.000031 -0.000004 -0.000027 -0.000011  0.000071 -0.001044
  2C   1s         0.000031 -0.000012  0.382934  0.034360  0.000482 -0.775770
  2C   2s        -0.000868  0.000356  0.017251  0.001393  0.000393 -0.040694
  2C   3s         0.004687  0.000057  0.005602 -0.000138  0.002912  0.026067
  2C   1pz       -0.000175  0.000061 -0.000311 -0.000052  0.000065 -0.000082
  2C   1px       -0.000053  0.000039  0.001760  0.000189 -0.000261  0.000187
  2C   1py       -0.000012  0.000022 -0.001119 -0.000120  0.000092 -0.000100
  2C   2pz        0.002198 -0.000510  0.001404  0.000165  0.002013  0.005712
  2C   2px        0.000832  0.000749  0.006447 -0.000037  0.001282  0.002979
  2C   2py        0.001351 -0.000467 -0.000303  0.000127  0.000842  0.003286
  2C   1dz2      -0.000093  0.000043  0.000669  0.000067 -0.000018 -0.000170
  2C   1dxz       0.000077 -0.000034  0.000754  0.000080 -0.000058 -0.000343
  2C   1dyz       0.000091 -0.000040  0.000350  0.000020  0.000119 -0.001766
  2C   1dx2y2     0.000194 -0.000066 -0.000414 -0.000051  0.000081 -0.000752
  2C   1dxy      -0.000061  0.000023  0.000754  0.000089 -0.000170  0.000663
  3C   1s         0.000051 -0.000015  0.030264  0.002134  0.006896 -0.046848
  3C   2s        -0.000653  0.000082  0.000596  0.000035  0.000877 -0.000177
  3C   3s         0.000433 -0.000481 -0.013153 -0.001471 -0.008134 -0.019141
  3C   1pz       -0.000428  0.000148  0.000428  0.000039  0.000143 -0.001242
  3C   1px       -0.000148  0.000023  0.000561  0.000072 -0.000031 -0.001551
  3C   1py        0.000015 -0.000053 -0.000284  0.000009 -0.000143 -0.000403
  3C   2pz        0.002649  0.000434  0.003421 -0.000763 -0.001419 -0.003619
  3C   2px       -0.002180  0.002935  0.007791 -0.000193  0.002704 -0.002094
  3C   2py        0.001877 -0.001030  0.001933 -0.000255 -0.001084 -0.002165
  3C   1dz2      -0.000145  0.000151 -0.000028 -0.000045  0.000023 -0.000237
  3C   1dxz      -0.000381  0.000201 -0.000459 -0.000062 -0.000002  0.000960
  3C   1dyz       0.000137 -0.000121 -0.000088 -0.000018 -0.000057  0.000246
  3C   1dx2y2     0.000041  0.000063 -0.000293 -0.000052  0.000005  0.000967
  3C   1dxy      -0.000362  0.000161 -0.000195 -0.000021  0.000025  0.000075
  4C   1s         0.000181 -0.000225  0.001161 -0.000924  0.001771  0.000011
  4C   2s         0.000234  0.001737 -0.000680 -0.000844  0.000612 -0.000159
  4C   3s         0.013051 -0.009305 -0.007224  0.005813 -0.000208  0.000376
  4C   1pz       -0.000255  0.000707  0.000457 -0.000123  0.000154  0.000234
  4C   1px       -0.000473  0.000653  0.000386  0.000035 -0.000103 -0.000076
  4C   1py       -0.000028 -0.000263 -0.000266  0.000139 -0.000201  0.000221
  4C   2pz        0.010521 -0.006403 -0.009065  0.000910 -0.005146 -0.007594
  4C   2px        0.017135 -0.009136 -0.011766  0.000050 -0.004015  0.007306
  4C   2py        0.000048  0.001129 -0.000537 -0.000395 -0.001017 -0.008133
  4C   1dz2       0.000337 -0.000134  0.000038 -0.000032  0.000036  0.000143
  4C   1dxz      -0.000674  0.000364  0.000070  0.000043 -0.000053  0.000084
  4C   1dyz      -0.000061  0.000082  0.000034  0.000045  0.000013  0.000007
  4C   1dx2y2    -0.000608  0.000342  0.000031  0.000056 -0.000071 -0.000115
  4C   1dxy      -0.000612  0.000213 -0.000041  0.000033  0.000012  0.000162
  5C   1s         0.000042 -0.000015  0.053896  0.002433  0.034563  0.084036
  5C   2s        -0.000664  0.000110  0.001774  0.000026  0.001947  0.002697
  5C   3s        -0.000303  0.000125 -0.012421 -0.001902 -0.003803  0.017400
  5C   1pz       -0.000209  0.000108  0.000600  0.000040  0.000236  0.000525
  5C   1px       -0.000407  0.000131  0.000425  0.000057  0.000326  0.001439
  5C   1py        0.000237 -0.000123 -0.000085  0.000016 -0.000176 -0.000013
  5C   2pz       -0.001374  0.002142  0.003716 -0.000054  0.002297 -0.000600
  5C   2px        0.004380 -0.000681  0.008238 -0.000983  0.001747  0.004545
  5C   2py       -0.003004  0.001336  0.001693  0.000549  0.001845 -0.002143
  5C   1dz2       0.000218 -0.000133  0.000182  0.000044  0.000001  0.000078
  5C   1dxz      -0.000096  0.000174 -0.000326 -0.000062 -0.000137 -0.000747
  5C   1dyz       0.000392 -0.000209  0.000076  0.000010 -0.000064 -0.000109
  5C   1dx2y2    -0.000185  0.000052 -0.000364 -0.000040 -0.000157 -0.000588
  5C   1dxy      -0.000025 -0.000018 -0.000050  0.000034 -0.000045 -0.000211
  6H   1s        -0.000224 -0.000048 -0.000154  0.000073 -0.000363 -0.000793
  6H   2s         0.001534 -0.001373  0.000268 -0.000016 -0.000345 -0.001317
  6H   1pz       -0.000023  0.000010  0.000087  0.000029  0.000051 -0.000015
  6H   1px       -0.000424  0.000171 -0.000471  0.000013 -0.000066 -0.000413
  6H   1py        0.000204 -0.000046  0.000013  0.000003 -0.000049  0.000144
  7H   1s         0.000211 -0.000102 -0.002170 -0.000130 -0.000754 -0.004122
  7H   2s         0.000502 -0.000223  0.001123  0.000202  0.001013  0.002311
  7H   1pz       -0.000153  0.000057 -0.000098 -0.000004  0.000167  0.000709
  7H   1px       -0.000047  0.000017 -0.001111 -0.000081 -0.000384 -0.001364
  7H   1py       -0.000078  0.000025  0.000147  0.000021  0.000258  0.000972
  8H   1s        -0.000197  0.000078 -0.005174 -0.000493  0.000475 -0.000521
  8H   2s        -0.000243  0.000083  0.003936  0.000479 -0.000914  0.000940
  8H   1pz       -0.000001 -0.000005 -0.001180 -0.000123  0.000258  0.000292
  8H   1px        0.000091 -0.000025 -0.002127 -0.000221  0.000301 -0.000678
  8H   1py        0.000010  0.000023 -0.000305 -0.000030  0.000072  0.000437
  9H   1s         0.000233 -0.000125 -0.002246 -0.000158  0.000174  0.005133
  9H   2s         0.000545 -0.000287  0.001281  0.000217  0.000449 -0.003991
  9H   1pz        0.000023 -0.000010 -0.000827 -0.000073 -0.000067  0.002034
  9H   1px       -0.000071 -0.000008 -0.000661 -0.000043 -0.000023 -0.000118
  9H   1py        0.000064 -0.000017 -0.000542 -0.000045 -0.000029  0.001535
 10H   1s        -0.000073 -0.000126  0.000043  0.000070 -0.000088  0.000710
 10H   2s         0.001623 -0.001221  0.000221 -0.000045  0.000025  0.001994
 10H   1pz       -0.000350  0.000072 -0.000237  0.000008  0.000101  0.000319
 10H   1px       -0.000070  0.000003 -0.000287  0.000020 -0.000012  0.000412
 10H   1py       -0.000142  0.000060 -0.000300 -0.000017 -0.000030  0.000127
 11N   1s        -0.857032  0.491918 -0.000049  0.000026 -0.000072  0.000019
 11N   2s         0.042572 -0.020853 -0.000957  0.000250 -0.000997  0.000252
 11N   3s        -0.046851  0.013920  0.010485  0.000660  0.003604 -0.001456
 11N   1pz       -0.001465 -0.000918 -0.000054 -0.000020  0.000021 -0.000001
 11N   1px        0.001030 -0.001332 -0.000036 -0.000009 -0.000069  0.000041
 11N   1py        0.002369 -0.000086 -0.000014  0.000017 -0.000096 -0.000001
 11N   2pz        0.003310 -0.003555 -0.002822  0.001502 -0.001520  0.001098
 11N   2px        0.011913 -0.005061 -0.004248  0.001140 -0.002563 -0.000240
 11N   2py        0.006213 -0.000412 -0.000618 -0.000730 -0.000111  0.001115
 11N   1dz2       0.000995  0.000425 -0.000059  0.000054 -0.000072 -0.000105
 11N   1dxz       0.001282  0.000686  0.000065  0.000009  0.000035 -0.000089
 11N   1dyz      -0.001432 -0.000849 -0.000015 -0.000094 -0.000007 -0.000086
 11N   1dx2y2    -0.000121 -0.000079  0.000057 -0.000061  0.000072  0.000121
 11N   1dxy      -0.001016 -0.000304  0.000113 -0.000053  0.000082 -0.000097
 12N   1s         0.491012  0.857632  0.000008  0.000022 -0.000024 -0.000001
 12N   2s        -0.025961 -0.038814  0.000170  0.000554 -0.000325 -0.000050
 12N   3s         0.034757  0.036736 -0.003270 -0.007501  0.002012  0.000778
 12N   1pz       -0.001743 -0.000327 -0.000112  0.000134 -0.000124  0.000016
 12N   1px       -0.001669 -0.001700 -0.000084  0.000075 -0.000049  0.000000
 12N   1py        0.000493 -0.001033  0.000071 -0.000070  0.000100 -0.000008
 12N   2pz        0.002132 -0.001064 -0.001637  0.001220 -0.002304 -0.000041
 12N   2px       -0.006517 -0.007693  0.000362  0.001897 -0.001567 -0.000068
 12N   2py       -0.007577 -0.005143  0.002206  0.000294  0.001110 -0.000303
 12N   1dz2      -0.000998 -0.000045  0.000007 -0.000017 -0.000058  0.000022
 12N   1dxz      -0.000883  0.000218  0.000025 -0.000012  0.000048 -0.000021
 12N   1dyz       0.002060  0.000011 -0.000027  0.000062  0.000033 -0.000023
 12N   1dx2y2     0.000697  0.000162  0.000006  0.000027  0.000068  0.000036
 12N   1dxy       0.000787  0.000102 -0.000015  0.000011  0.000100 -0.000001
 13C   1s        -0.000045 -0.000204 -0.000161  0.002233  0.000341 -0.000115
 13C   2s        -0.001205  0.000301 -0.000068  0.001773  0.000146 -0.000009
 13C   3s        -0.008137 -0.019772 -0.014199  0.008235 -0.003914  0.000584
 13C   1pz        0.000182 -0.000703  0.000154  0.000214 -0.000212  0.000007
 13C   1px        0.000325  0.000419  0.000200 -0.000167 -0.000214 -0.000018
 13C   1py        0.000089  0.001087  0.000001 -0.000366  0.000044  0.000010
 13C   2pz       -0.000190  0.015158 -0.002532 -0.004971  0.011043  0.000038
 13C   2px       -0.014342  0.004749  0.007031 -0.000634  0.012777 -0.000910
 13C   2py       -0.011785 -0.012120  0.008137  0.004809 -0.000856 -0.000684
 13C   1dz2      -0.000384 -0.000356  0.000014  0.000035  0.000109 -0.000032
 13C   1dxz      -0.000125 -0.000645 -0.000137  0.000060  0.000000  0.000013
 13C   1dyz      -0.000018 -0.000424 -0.000039  0.000062 -0.000193  0.000022
 13C   1dx2y2     0.000055 -0.000490 -0.000129  0.000040 -0.000126  0.000003
 13C   1dxy       0.000599  0.000737 -0.000042 -0.000098 -0.000053 -0.000008
 14C   1s        -0.000011  0.000076  0.001895 -0.010677 -0.064306  0.003347
 14C   2s        -0.000103 -0.001051 -0.000105  0.001544 -0.002995  0.000101
 14C   3s         0.007073 -0.002240  0.007815  0.006830 -0.014009  0.000197
 14C   1pz       -0.000162  0.000032 -0.000073  0.000034  0.000553 -0.000026
 14C   1px       -0.000014  0.000091  0.000025 -0.000415 -0.000136  0.000015
 14C   1py        0.000170  0.000043  0.000099 -0.000369 -0.000673  0.000038
 14C   2pz       -0.002718  0.005105 -0.001587  0.003873  0.005182 -0.000113
 14C   2px        0.001331  0.001784 -0.004040 -0.000093  0.000871  0.000230
 14C   2py        0.003769 -0.003301 -0.001753 -0.004100 -0.004251  0.000285
 14C   1dz2       0.000112  0.000096  0.000009 -0.000033 -0.000145  0.000010
 14C   1dxz      -0.000120 -0.000143  0.000091 -0.000185 -0.000206  0.000011
 14C   1dyz      -0.000225 -0.000121  0.000019 -0.000264 -0.000252  0.000020
 14C   1dx2y2    -0.000188 -0.000168  0.000056 -0.000217 -0.000194  0.000011
 14C   1dxy      -0.000117 -0.000174 -0.000003  0.000164  0.000301 -0.000027
 15C   1s        -0.000022 -0.000008  0.018024 -0.266869 -0.354559  0.026134
 15C   2s         0.000747  0.000416  0.000565 -0.010001 -0.017465  0.001286
 15C   3s        -0.003893 -0.003416 -0.003865 -0.008626  0.004680 -0.000006
 15C   1pz       -0.000122 -0.000103  0.000066 -0.000705 -0.000188  0.000014
 15C   1px       -0.000031  0.000023  0.000094 -0.001927 -0.000648  0.000057
 15C   1py        0.000080  0.000116  0.000016 -0.000864 -0.000340  0.000035
 15C   2pz        0.002369  0.002076  0.001280  0.001535 -0.003712  0.000182
 15C   2px        0.002852 -0.002059  0.000237 -0.002639 -0.000298 -0.000089
 15C   2py        0.000036 -0.003848 -0.001111 -0.003671  0.003411 -0.000255
 15C   1dz2       0.000024  0.000032  0.000049 -0.000513 -0.000184  0.000012
 15C   1dxz      -0.000052 -0.000061 -0.000034  0.000475 -0.000133  0.000007
 15C   1dyz       0.000103  0.000054 -0.000040  0.000632  0.000499 -0.000039
 15C   1dx2y2    -0.000004 -0.000022 -0.000057  0.000742  0.000181 -0.000016
 15C   1dxy      -0.000112 -0.000099 -0.000065  0.000656  0.000034  0.000000
 16C   1s        -0.000011 -0.000024  0.075718 -0.870714 -0.263390  0.019936
 16C   2s         0.000051  0.000283  0.003822 -0.042362 -0.015512  0.001170
 16C   3s         0.003478  0.004624  0.002331  0.022626  0.017885 -0.001617
 16C   1pz       -0.000031 -0.000044  0.000121 -0.000511  0.002105 -0.000160
 16C   1px        0.000039  0.000061  0.000078  0.000123  0.001949 -0.000151
 16C   1py        0.000056  0.000082 -0.000055  0.000592 -0.000560  0.000044
 16C   2pz        0.000825 -0.003517 -0.000943 -0.002066  0.000608 -0.000084
 16C   2px        0.002672 -0.002304 -0.000725  0.003219  0.002278 -0.000257
 16C   2py        0.001336  0.001749  0.000377  0.004705  0.001299 -0.000134
 16C   1dz2      -0.000007 -0.000008 -0.000070  0.000353 -0.000723  0.000056
 16C   1dxz      -0.000019 -0.000026 -0.000044 -0.000194 -0.000965  0.000077
 16C   1dyz      -0.000001  0.000004 -0.000024  0.001236  0.001683 -0.000133
 16C   1dx2y2    -0.000013 -0.000017 -0.000012  0.000240  0.000296 -0.000022
 16C   1dxy       0.000004  0.000003  0.000122 -0.001230  0.000272 -0.000020
 17C   1s         0.000025 -0.000051  0.062916 -0.371088  0.863160 -0.066617
 17C   2s         0.000050  0.001082  0.002929 -0.015511  0.045847 -0.003475
 17C   3s        -0.004918 -0.001064 -0.001257 -0.007253 -0.029829  0.002579
 17C   1pz        0.000048  0.000007 -0.000221  0.001768  0.000517 -0.000039
 17C   1px        0.000055  0.000181 -0.000156  0.000911  0.000245 -0.000002
 17C   1py       -0.000019  0.000130  0.000120 -0.001063 -0.000289  0.000035
 17C   2pz        0.002318 -0.005001 -0.003776  0.004685 -0.002859  0.000252
 17C   2px       -0.001099 -0.003006 -0.003265 -0.000845 -0.005853  0.000671
 17C   2py       -0.003232  0.002610  0.001166 -0.005409 -0.001878  0.000288
 17C   1dz2      -0.000020  0.000004  0.000033  0.000734 -0.000113 -0.000002
 17C   1dxz      -0.000067 -0.000028  0.000085  0.000474  0.001673 -0.000136
 17C   1dyz       0.000146  0.000120 -0.000111 -0.000493 -0.001563  0.000124
 17C   1dx2y2     0.000023  0.000031 -0.000002 -0.000160  0.000537 -0.000040
 17C   1dxy      -0.000036 -0.000060  0.000005 -0.000926  0.001182 -0.000078
 18C   1s         0.000063  0.000016  0.015590 -0.013988  0.044880 -0.005755
 18C   2s        -0.000570 -0.000507  0.001137  0.001508 -0.000654 -0.000202
 18C   3s        -0.002754  0.010220 -0.000689  0.002879  0.020504 -0.000648
 18C   1pz       -0.000135  0.000051 -0.000242  0.000418 -0.000732  0.000079
 18C   1px        0.000088 -0.000017 -0.000368 -0.000110  0.001074 -0.000036
 18C   1py        0.000208 -0.000082 -0.000052 -0.000504  0.001589 -0.000168
 18C   2pz       -0.002997 -0.001592  0.009704  0.001282  0.000766 -0.001005
 18C   2px       -0.008970  0.008593  0.012618 -0.007995  0.008504 -0.000996
 18C   2py       -0.003924  0.008676  0.000100 -0.007808  0.005980  0.000224
 18C   1dz2      -0.000010 -0.000293 -0.000168 -0.000164  0.000207  0.000029
 18C   1dxz      -0.000335 -0.000223  0.000007 -0.000276  0.000412 -0.000011
 18C   1dyz       0.000010  0.000180  0.000348 -0.000340  0.001224 -0.000097
 18C   1dx2y2    -0.000218  0.000037  0.000204 -0.000254  0.000693 -0.000060
 18C   1dxy       0.000002  0.000417  0.000129  0.000379 -0.000863  0.000080
 19H   1s        -0.000076 -0.000180  0.000058 -0.000271 -0.000937  0.000019
 19H   2s        -0.006061  0.000071  0.017269 -0.000378  0.001587 -0.001615
 19H   1pz       -0.000043  0.000073  0.000679 -0.000028  0.000271  0.000021
 19H   1px       -0.000092  0.000126  0.000353  0.000365 -0.000271 -0.000073
 19H   1py       -0.000012  0.000024 -0.000449  0.000318 -0.000468  0.000131
 20H   1s        -0.000175 -0.000009  0.000342 -0.000336  0.000627 -0.000059
 20H   2s        -0.001763 -0.001056  0.000652 -0.000730  0.001155 -0.000097
 20H   1pz       -0.000053 -0.000199  0.000081 -0.000281 -0.000296  0.000013
 20H   1px       -0.000053 -0.000026  0.000053  0.000019 -0.000080 -0.000003
 20H   1py        0.000009  0.000149 -0.000032  0.000311  0.000215 -0.000014
 21H   1s        -0.000321 -0.000259 -0.000162  0.001502  0.002789 -0.000202
 21H   2s        -0.000755 -0.000646 -0.000026 -0.000435 -0.000469  0.000033
 21H   1pz       -0.000001  0.000016  0.000016 -0.000479 -0.000746  0.000056
 21H   1px       -0.000007  0.000147 -0.000002  0.000182 -0.000488  0.000037
 21H   1py       -0.000016  0.000110 -0.000014  0.000626  0.000351 -0.000025
 22H   1s         0.000119  0.000092 -0.000529  0.005463  0.001446 -0.000104
 22H   2s         0.000005  0.000016  0.000222 -0.004056 -0.002592  0.000214
 22H   1pz       -0.000031  0.000120  0.000099 -0.001150 -0.000901  0.000071
 22H   1px       -0.000096  0.000096 -0.000089  0.001122 -0.000010  0.000004
 22H   1py       -0.000048 -0.000052 -0.000172  0.002053  0.000892 -0.000067
 23H   1s        -0.000131 -0.000446 -0.000644  0.002203 -0.005507  0.000438
 23H   2s         0.000218 -0.001304 -0.001792 -0.000833  0.004520 -0.000228
 23H   1pz       -0.000085  0.000064  0.000026 -0.000159 -0.001114  0.000085
 23H   1px       -0.000005 -0.000027 -0.000178  0.000781 -0.002567  0.000198
 23H   1py        0.000080 -0.000083 -0.000162  0.000781 -0.000908  0.000071
                      6         7         8         9        10        11   
                 -10.10071 -10.10067 -10.10001 -10.09987 -10.09914 -10.09912
                   2.00000   2.00000   2.00000   2.00000   2.00000   2.00000
                  --------  --------  --------  --------  --------  --------
  0C   1s        -0.675161  0.001630  0.123826  0.004060  0.010224  0.005964
  0C   2s        -0.037059  0.000038  0.010076  0.000134 -0.000284 -0.000297
  0C   3s         0.032019  0.000235 -0.021190  0.001793  0.009928 -0.009676
  0C   1pz        0.001194  0.000007  0.001390  0.000039 -0.000011  0.000215
  0C   1px        0.000368 -0.000007  0.002174  0.000035 -0.000066 -0.000158
  0C   1py        0.000963  0.000005  0.000535  0.000040  0.000186  0.000013
  0C   2pz       -0.002200 -0.000198  0.001725  0.000463 -0.000275 -0.001333
  0C   2px        0.001776  0.000144 -0.001427  0.001110  0.004404 -0.001109
  0C   2py       -0.002522 -0.000258  0.001672 -0.000181 -0.002520 -0.000147
  0C   1dz2      -0.000243 -0.000001 -0.000284  0.000003  0.000007 -0.000046
  0C   1dxz      -0.000122 -0.000002  0.001359  0.000075  0.000118  0.000010
  0C   1dyz      -0.002311  0.000001  0.000683  0.000046  0.000062  0.000066
  0C   1dx2y2    -0.000696  0.000009  0.001424  0.000060  0.000055  0.000094
  0C   1dxy       0.000975 -0.000008  0.000043 -0.000014 -0.000054 -0.000082
  1C   1s         0.518141  0.001611  0.012877  0.002250  0.005741 -0.010496
  1C   2s         0.031042  0.000038  0.000452  0.000040  0.000007 -0.000505
  1C   3s        -0.037631 -0.000622  0.005923 -0.001083 -0.009142 -0.003026
  1C   1pz        0.000822 -0.000001 -0.000443 -0.000036 -0.000134 -0.000228
  1C   1px        0.000872 -0.000013  0.000258 -0.000016 -0.000011  0.000145
  1C   1py        0.000527 -0.000004 -0.000295  0.000008  0.000026 -0.000360
  1C   2pz       -0.001730 -0.000130  0.001456 -0.000269 -0.001538  0.003871
  1C   2px       -0.004445 -0.000158 -0.003393 -0.000844 -0.003814  0.000469
  1C   2py       -0.000176  0.000013  0.001974  0.000083  0.000199  0.002884
  1C   1dz2       0.000205 -0.000001 -0.000141  0.000005  0.000001 -0.000101
  1C   1dxz       0.000364  0.000003 -0.000194 -0.000019 -0.000048  0.000056
  1C   1dyz       0.002524  0.000000 -0.000360  0.000003 -0.000007  0.000114
  1C   1dx2y2     0.000976  0.000002 -0.000050 -0.000009 -0.000019  0.000241
  1C   1dxy      -0.000992  0.000004 -0.000011 -0.000012 -0.000032 -0.000158
  2C   1s        -0.471259  0.002847 -0.008880  0.002002  0.001639 -0.058360
  2C   2s        -0.026638  0.000102  0.000510 -0.000132 -0.001246 -0.006424
  2C   3s         0.026591  0.000190  0.006151  0.002824  0.014008  0.017582
  2C   1pz       -0.000402 -0.000007  0.000167 -0.000049 -0.000353 -0.000994
  2C   1px        0.001363  0.000003  0.000119 -0.000010 -0.000319 -0.002383
  2C   1py       -0.000523 -0.000008  0.000261 -0.000001  0.000028 -0.000232
  2C   2pz        0.001048  0.000245 -0.000054  0.001031  0.004707  0.000907
  2C   2px       -0.002631 -0.000159  0.001791  0.000627  0.000730 -0.000909
  2C   2py        0.001246  0.000167 -0.000898  0.000305  0.002220  0.001200
  2C   1dz2       0.000087  0.000004 -0.000069  0.000002  0.000056  0.000231
  2C   1dxz       0.000106  0.000008  0.000029  0.000025 -0.000138 -0.001354
  2C   1dyz      -0.001700  0.000012 -0.000079  0.000016 -0.000066 -0.000576
  2C   1dx2y2    -0.000807 -0.000001  0.000061  0.000036 -0.000091 -0.001311
  2C   1dxy       0.001079 -0.000002  0.000025 -0.000032 -0.000081 -0.000143
  3C   1s        -0.019635  0.000727 -0.039470  0.003468  0.141387  0.974572
  3C   2s         0.000784  0.000142 -0.002618  0.000349  0.007627  0.052216
  3C   3s         0.002452 -0.001040  0.008094 -0.001671 -0.015915 -0.032351
  3C   1pz       -0.000794  0.000016 -0.000335  0.000015  0.000151  0.000222
  3C   1px       -0.001055  0.000008 -0.000104 -0.000026  0.000008 -0.000184
  3C   1py       -0.000045  0.000009  0.000094 -0.000019 -0.000169 -0.000262
  3C   2pz        0.003244 -0.000622  0.005632  0.000712 -0.001194  0.000394
  3C   2px       -0.002340 -0.000080  0.006167  0.000738  0.005400  0.005615
  3C   2py        0.002124 -0.000175  0.001808  0.000622 -0.002148 -0.000334
  3C   1dz2      -0.000095 -0.000027  0.000014 -0.000001  0.000038 -0.000139
  3C   1dxz       0.000651 -0.000012  0.000169 -0.000029  0.000017  0.000223
  3C   1dyz       0.000261  0.000001 -0.000158  0.000009  0.000096  0.001985
  3C   1dx2y2     0.000651 -0.000016 -0.000137 -0.000025  0.000163  0.001463
  3C   1dxy       0.000057 -0.000006  0.000252 -0.000009 -0.000058 -0.001192
  4C   1s        -0.003446 -0.000552 -0.013362 -0.000150  0.001429  0.012599
  4C   2s        -0.000132 -0.000341  0.001145  0.000357 -0.000013 -0.000856
  4C   3s        -0.001917  0.002879 -0.012136 -0.001594  0.010992  0.008843
  4C   1pz       -0.000150 -0.000092  0.000414  0.000005  0.000448  0.001886
  4C   1px       -0.000085 -0.000021 -0.001608 -0.000106  0.000147 -0.000278
  4C   1py        0.000101  0.000075  0.001415  0.000042  0.000147  0.000893
  4C   2pz        0.007018  0.000471  0.006098  0.000626 -0.002707  0.005642
  4C   2px        0.006466  0.000199 -0.005702  0.001098 -0.006301 -0.000690
  4C   2py        0.002045 -0.000179  0.002740 -0.000147  0.000008  0.008265
  4C   1dz2      -0.000046 -0.000006 -0.000653  0.000007 -0.000197 -0.001122
  4C   1dxz      -0.000110  0.000028 -0.000759  0.000062 -0.000110 -0.000189
  4C   1dyz      -0.000099  0.000033  0.000675  0.000036 -0.000055 -0.001700
  4C   1dx2y2    -0.000050  0.000033  0.000752  0.000079  0.000132  0.000541
  4C   1dxy      -0.000015  0.000001 -0.001528 -0.000088 -0.000045 -0.000004
  5C   1s        -0.071570  0.001074 -0.977887 -0.028430 -0.013963 -0.037124
  5C   2s        -0.001277  0.000151 -0.052405 -0.001352 -0.000461 -0.001627
  5C   3s        -0.003346 -0.001191  0.035051  0.000002 -0.011982 -0.003321
  5C   1pz       -0.000898 -0.000000 -0.000086 -0.000015  0.000157  0.000177
  5C   1px       -0.001626  0.000012  0.000162 -0.000008  0.000039  0.000178
  5C   1py        0.000035 -0.000007  0.000407 -0.000022 -0.000155 -0.000170
  5C   2pz       -0.002663 -0.000004 -0.004112 -0.000106  0.003585 -0.004358
  5C   2px       -0.000466 -0.000570 -0.002658  0.001336  0.000016 -0.008205
  5C   2py       -0.002635  0.000438 -0.003163 -0.000291  0.003097 -0.000558
  5C   1dz2      -0.000150  0.000019 -0.000209  0.000003 -0.000047  0.000096
  5C   1dxz       0.000916 -0.000021 -0.000824 -0.000053  0.000004 -0.000021
  5C   1dyz       0.000271  0.000008 -0.002404 -0.000058 -0.000198  0.000186
  5C   1dx2y2     0.000794  0.000000 -0.000983 -0.000045 -0.000134 -0.000171
  5C   1dxy       0.000143  0.000017  0.000761  0.000007  0.000061 -0.000048
  6H   1s         0.000888  0.000029  0.005582  0.000160  0.000048  0.001040
  6H   2s         0.001416  0.000012 -0.006245  0.000249 -0.000347  0.002000
  6H   1pz        0.000053  0.000021 -0.002757 -0.000092 -0.000044  0.000034
  6H   1px        0.000232  0.000021 -0.000131 -0.000076  0.000038  0.000308
  6H   1py        0.000071 -0.000010 -0.001873 -0.000091 -0.000136 -0.000125
  7H   1s         0.003782  0.000026 -0.000676  0.000025  0.000268  0.000338
  7H   2s        -0.005444  0.000089  0.002014  0.000121  0.000538  0.001149
  7H   1pz       -0.000925  0.000003 -0.000128 -0.000042 -0.000103  0.000078
  7H   1px        0.001970 -0.000004 -0.000908 -0.000039 -0.000066 -0.000020
  7H   1py       -0.001241  0.000007  0.000227  0.000002  0.000068 -0.000024
  8H   1s        -0.002990 -0.000013 -0.000683 -0.000087 -0.000216  0.000654
  8H   2s         0.004968  0.000013 -0.001473 -0.000115 -0.000312  0.001380
  8H   1pz       -0.001184  0.000002 -0.000083  0.000001 -0.000007 -0.000140
  8H   1px       -0.001806 -0.000002  0.000139  0.000027  0.000066  0.000034
  8H   1py       -0.000273 -0.000004 -0.000064 -0.000002 -0.000012 -0.000160
  9H   1s         0.002372  0.000018 -0.000335  0.000033  0.000235  0.000224
  9H   2s        -0.004610  0.000096 -0.001040  0.000050  0.000101 -0.001696
  9H   1pz        0.001472 -0.000011 -0.000030 -0.000018 -0.000030  0.000562
  9H   1px        0.000011  0.000003 -0.000069 -0.000028  0.000025  0.000471
  9H   1py        0.001154 -0.000005  0.000066  0.000026  0.000108  0.000202
 10H   1s         0.000432  0.000031 -0.000525 -0.000009 -0.000958 -0.005610
 10H   2s         0.000981 -0.000003 -0.002176  0.000480  0.000300  0.006195
 10H   1pz       -0.000060  0.000022 -0.000247 -0.000012 -0.000082 -0.001056
 10H   1px        0.000202  0.000017 -0.000349 -0.000066  0.000319  0.002655
 10H   1py        0.000006 -0.000007  0.000018 -0.000044 -0.000237 -0.001692
 11N   1s         0.000018 -0.000003  0.000012 -0.000041  0.000054 -0.000041
 11N   2s         0.000431 -0.000035  0.000390 -0.000244  0.000517 -0.000685
 11N   3s        -0.006046 -0.000666  0.000213 -0.005272  0.002838  0.000469
 11N   1pz        0.000012  0.000014 -0.000189  0.000160 -0.000118  0.000039
 11N   1px        0.000014 -0.000003  0.000041  0.000037  0.000067 -0.000003
 11N   1py        0.000022 -0.000021  0.000074 -0.000146  0.000149 -0.000251
 11N   2pz        0.000817  0.000314 -0.003001 -0.001624 -0.000190  0.001094
 11N   2px        0.002072  0.000303  0.000347 -0.000337  0.000257  0.001668
 11N   2py        0.000405 -0.000118  0.000139  0.001499 -0.000073 -0.003101
 11N   1dz2       0.000029  0.000016  0.000143 -0.000033  0.000042  0.000147
 11N   1dxz      -0.000003 -0.000002  0.000121 -0.000004  0.000035  0.000112
 11N   1dyz       0.000039 -0.000039  0.000124  0.000073  0.000124  0.000083
 11N   1dx2y2    -0.000028 -0.000028 -0.000174  0.000043  0.000030 -0.000190
 11N   1dxy      -0.000005 -0.000016  0.000165  0.000050 -0.000050  0.000091
 12N   1s        -0.000003 -0.000003  0.000003 -0.000127 -0.000079  0.000021
 12N   2s        -0.000115  0.000153 -0.000167 -0.001666 -0.000910  0.000529
 12N   3s         0.002493 -0.004137  0.003478  0.013328  0.009477 -0.007076
 12N   1pz        0.000042  0.000028  0.000053 -0.000199  0.000204 -0.000117
 12N   1px        0.000045  0.000017  0.000030 -0.000241  0.000012  0.000047
 12N   1py       -0.000022 -0.000001 -0.000105 -0.000025 -0.000247  0.000101
 12N   2pz        0.000256 -0.000853  0.000054 -0.003047  0.003791  0.000310
 12N   2px       -0.000561  0.000224 -0.000532 -0.004656 -0.000267  0.001062
 12N   2py       -0.000762  0.001133 -0.000073 -0.000778 -0.004282  0.000933
 12N   1dz2      -0.000007 -0.000046 -0.000027 -0.000102  0.000040 -0.000099
 12N   1dxz       0.000011  0.000024  0.000088  0.000064 -0.000198 -0.000020
 12N   1dyz       0.000016  0.000050 -0.000067 -0.000005 -0.000080  0.000134
 12N   1dx2y2     0.000001  0.000052 -0.000057  0.000059 -0.000196 -0.000020
 12N   1dxy       0.000007  0.000067 -0.000040  0.000165 -0.000087 -0.000007
 13C   1s        -0.000046 -0.001395  0.001254 -0.010047 -0.010568  0.000952
 13C   2s        -0.000054  0.000589 -0.000106  0.002709  0.001883 -0.000209
 13C   3s         0.005083 -0.000358  0.005337 -0.016254 -0.009787 -0.002767
 13C   1pz       -0.000097 -0.000037  0.000016  0.001778 -0.000655  0.000087
 13C   1px       -0.000099 -0.000177 -0.000033  0.000925 -0.001998  0.000274
 13C   1py        0.000016 -0.000118  0.000040 -0.000979 -0.000908  0.000192
 13C   2pz        0.002905  0.001740 -0.002811  0.011994 -0.002536  0.002096
 13C   2px       -0.001352  0.007854 -0.006450  0.006786 -0.013753  0.007466
 13C   2py       -0.004001  0.004740 -0.002010 -0.006786 -0.008700  0.004432
 13C   1dz2      -0.000001  0.000106 -0.000059  0.000909 -0.000712  0.000142
 13C   1dxz       0.000052  0.000011  0.000029  0.001292  0.001079 -0.000335
 13C   1dyz      -0.000013  0.000017  0.000034 -0.001155  0.000479 -0.000161
 13C   1dx2y2     0.000045 -0.000038  0.000181  0.000100  0.001248 -0.000235
 13C   1dxy       0.000037 -0.000176  0.000053 -0.000604  0.001110 -0.000232
 14C   1s        -0.010251 -0.070043  0.026994 -0.982369  0.011945  0.003313
 14C   2s        -0.000475  0.000147  0.001562 -0.051270  0.001087 -0.000029
 14C   3s        -0.005638 -0.012697 -0.000685  0.023451  0.000934  0.000789
 14C   1pz        0.000120  0.001188  0.000017  0.000019  0.000124 -0.000067
 14C   1px       -0.000019 -0.000869 -0.000024 -0.000029 -0.000118  0.000074
 14C   1py       -0.000139 -0.001898 -0.000071 -0.000024 -0.000202  0.000085
 14C   2pz        0.001156  0.001234 -0.002003  0.001518 -0.004805  0.002268
 14C   2px        0.001872 -0.001096  0.001187 -0.000676  0.005276 -0.002369
 14C   2py        0.000422 -0.002141  0.002884 -0.001874  0.008953 -0.004232
 14C   1dz2      -0.000024 -0.000376 -0.000009  0.000343  0.000053 -0.000010
 14C   1dxz      -0.000059 -0.000365  0.000025 -0.001581 -0.000195  0.000048
 14C   1dyz      -0.000047 -0.000991 -0.000089  0.001587 -0.000130  0.000036
 14C   1dx2y2    -0.000046 -0.000513 -0.000001 -0.000518 -0.000192  0.000055
 14C   1dxy       0.000047  0.001048  0.000065 -0.001738 -0.000058  0.000011
 15C   1s        -0.053665 -0.875449 -0.009499  0.087598 -0.018524  0.005376
 15C   2s        -0.002630 -0.046394 -0.000408  0.008568  0.000438 -0.000141
 15C   3s         0.002827  0.036459  0.001761 -0.013314  0.011853 -0.003432
 15C   1pz       -0.000029  0.000171 -0.000018 -0.001048 -0.000253  0.000062
 15C   1px       -0.000051  0.000981 -0.000030  0.001319 -0.000137  0.000014
 15C   1py       -0.000017  0.000618 -0.000049  0.002126  0.000129 -0.000085
 15C   2pz       -0.001126 -0.004095 -0.000035 -0.000592 -0.000830  0.000479
 15C   2px        0.000046 -0.002896  0.001512  0.001257  0.001099 -0.001740
 15C   2py        0.001177  0.001767  0.001551  0.001585  0.001840 -0.001670
 15C   1dz2      -0.000026  0.000072  0.000006 -0.000348 -0.000027  0.000003
 15C   1dxz      -0.000032 -0.001947 -0.000008 -0.000201 -0.000071  0.000014
 15C   1dyz       0.000069  0.001576  0.000045 -0.001499  0.000129 -0.000015
 15C   1dx2y2     0.000018 -0.000668  0.000024 -0.000609  0.000008  0.000019
 15C   1dxy      -0.000000 -0.001268 -0.000046  0.001277 -0.000038 -0.000002
 16C   1s        -0.032789  0.375000 -0.002878  0.000476  0.003819  0.000771
 16C   2s        -0.002111  0.023901 -0.000254  0.000458  0.000548  0.000048
 16C   3s         0.001527 -0.032045  0.001406  0.002363 -0.001223 -0.001433
 16C   1pz        0.000319  0.000397  0.000031 -0.000438  0.000281 -0.000014
 16C   1px        0.000282  0.001615  0.000025 -0.000419  0.000409 -0.000048
 16C   1py       -0.000096  0.000946  0.000000  0.000098  0.000045 -0.000012
 16C   2pz        0.000325  0.002781  0.000331  0.003489 -0.000453 -0.000530
 16C   2px        0.000391  0.000048  0.001197  0.000833 -0.004147 -0.000122
 16C   2py       -0.000025 -0.002845  0.000135 -0.002849 -0.002960 -0.000080
 16C   1dz2      -0.000104 -0.000454  0.000012  0.000162 -0.000069  0.000030
 16C   1dxz      -0.000120  0.001637  0.000019 -0.000111 -0.000107 -0.000008
 16C   1dyz       0.000217 -0.000982  0.000007  0.000062  0.000268 -0.000008
 16C   1dx2y2     0.000045  0.000840  0.000010 -0.000106  0.000062 -0.000021
 16C   1dxy       0.000057  0.001548  0.000038 -0.000316 -0.000032  0.000014
 17C   1s         0.134415 -0.250070  0.018229 -0.035401  0.042600 -0.012964
 17C   2s         0.007098 -0.014037  0.000497 -0.000217  0.006320 -0.001019
 17C   3s        -0.004814  0.016746 -0.004039  0.012135 -0.009735  0.005332
 17C   1pz        0.000121 -0.000884  0.000119  0.000106 -0.001409 -0.000008
 17C   1px        0.000071 -0.000306  0.000002  0.000337  0.000971 -0.000105
 17C   1py       -0.000075  0.000638 -0.000251  0.000151  0.002187 -0.000197
 17C   2pz        0.000659  0.002518  0.001858 -0.002479  0.000282 -0.000547
 17C   2px        0.000436 -0.000845 -0.000305  0.000555  0.002692 -0.000667
 17C   2py       -0.000271 -0.003161 -0.000842  0.003076  0.001979  0.001383
 17C   1dz2      -0.000081 -0.000138 -0.000060  0.000033 -0.000447  0.000073
 17C   1dxz       0.000206 -0.001041  0.000050 -0.000077 -0.000303  0.000096
 17C   1dyz      -0.000177  0.000898  0.000087  0.000021 -0.001304  0.000128
 17C   1dx2y2     0.000096 -0.000282 -0.000001 -0.000066 -0.000564 -0.000014
 17C   1dxy       0.000253 -0.000370  0.000027 -0.000089  0.001322 -0.000216
 18C   1s         0.000265  0.005971  0.010886 -0.014208 -0.975916  0.141005
 18C   2s        -0.000864  0.002291  0.000409 -0.000241 -0.051041  0.007729
 18C   3s         0.004411  0.005294 -0.001497  0.004581  0.022724 -0.003853
 18C   1pz       -0.000031  0.000406  0.000176  0.000193  0.000304  0.000213
 18C   1px        0.000352 -0.000245  0.000123 -0.000191  0.000206 -0.000542
 18C   1py        0.000337 -0.000591  0.000547 -0.000304 -0.000143  0.000040
 18C   2pz       -0.004648  0.002211 -0.002730 -0.004902 -0.003742  0.001853
 18C   2px       -0.004174  0.003127 -0.006456  0.007284 -0.004827  0.007925
 18C   2py        0.001393  0.000071 -0.004512  0.010590 -0.000031  0.001928
 18C   1dz2       0.000123 -0.000121 -0.000023 -0.000139  0.000074 -0.000099
 18C   1dxz       0.000072 -0.000061 -0.000250 -0.000232 -0.001571  0.000482
 18C   1dyz       0.000050 -0.000413 -0.000149  0.000096  0.001891 -0.000194
 18C   1dx2y2     0.000025 -0.000156 -0.000196 -0.000065 -0.000310  0.000310
 18C   1dxy      -0.000237  0.000369 -0.000078  0.000136 -0.001150  0.000121
 19H   1s         0.000005  0.000031  0.000317 -0.000882  0.004941 -0.000874
 19H   2s        -0.009175  0.000752 -0.007672 -0.002313 -0.010766  0.010119
 19H   1pz       -0.000258 -0.000092 -0.000030  0.000113  0.002185 -0.001033
 19H   1px       -0.000227 -0.000105  0.000209 -0.000287  0.001495  0.000048
 19H   1py        0.000067  0.000015 -0.000554 -0.000351 -0.001241  0.000253
 20H   1s        -0.000045  0.000838 -0.000332  0.005415 -0.001009  0.000367
 20H   2s        -0.000085  0.001800 -0.000295 -0.006278 -0.002205  0.000895
 20H   1pz       -0.000063 -0.000232  0.000088 -0.001177  0.000191 -0.000079
 20H   1px       -0.000035  0.000148  0.000072 -0.002891 -0.000068  0.000037
 20H   1py        0.000030  0.000357 -0.000034 -0.001207 -0.000236  0.000105
 21H   1s         0.000439  0.005154 -0.000004 -0.000326 -0.000286  0.000078
 21H   2s        -0.000075 -0.006029 -0.000204  0.002168 -0.001139  0.000281
 21H   1pz       -0.000111 -0.002402 -0.000041  0.000606 -0.000037 -0.000005
 21H   1px       -0.000091 -0.001471 -0.000059 -0.000070 -0.000041  0.000078
 21H   1py        0.000034  0.001200 -0.000037 -0.000662 -0.000008  0.000044
 22H   1s         0.000195 -0.002106  0.000038 -0.000712 -0.000641  0.000083
 22H   2s        -0.000346  0.004271 -0.000076 -0.001409 -0.001167  0.000269
 22H   1pz       -0.000123  0.000533 -0.000005 -0.000132  0.000077  0.000016
 22H   1px       -0.000010 -0.000994 -0.000042 -0.000057  0.000161 -0.000019
 22H   1py        0.000117 -0.001331  0.000016  0.000090  0.000059  0.000015
 23H   1s        -0.000766  0.000864 -0.000149 -0.000229  0.000199  0.000100
 23H   2s         0.001816 -0.003317  0.001088 -0.001278  0.002740 -0.001374
 23H   1pz       -0.000165  0.000315 -0.000058  0.000108  0.000136 -0.000088
 23H   1px       -0.000371  0.000940  0.000025  0.000082 -0.000482  0.000098
 23H   1py       -0.000134  0.000429 -0.000058 -0.000056 -0.000538  0.000024
                     12        13        14        15        16        17   
                 -10.09094 -10.09038  -1.02044  -0.90621  -0.90105  -0.82478
                   2.00000   2.00000   2.00000   2.00000   2.00000   2.00000
                  --------  --------  --------  --------  --------  --------
  0C   1s         0.001452  0.000189 -0.005254 -0.089094 -0.081684  0.062041
  0C   2s         0.000712 -0.000010  0.009561  0.179515  0.165323 -0.130251
  0C   3s         0.010654  0.002637 -0.011359  0.022015  0.007668 -0.049311
  0C   1pz       -0.000163 -0.000059  0.000359 -0.016824 -0.016789  0.047143
  0C   1px        0.000105 -0.000025  0.004561  0.045915  0.039804  0.008961
  0C   1py       -0.000132  0.000006 -0.001238 -0.026610 -0.025278  0.032661
  0C   2pz        0.002090  0.000663 -0.002235 -0.001680 -0.004600  0.015665
  0C   2px        0.002045  0.001123 -0.003252  0.008484  0.002451 -0.005052
  0C   2py        0.000539  0.000125 -0.001234 -0.004331 -0.003618  0.013293
  0C   1dz2       0.000070  0.000002 -0.000187  0.000387  0.000518 -0.002887
  0C   1dxz      -0.000149 -0.000002  0.000330  0.002550  0.002130  0.000644
  0C   1dyz      -0.000209  0.000007  0.000237  0.005877  0.005416 -0.005897
  0C   1dx2y2    -0.000189 -0.000020  0.000550  0.003283  0.002678  0.001997
  0C   1dxy       0.000122  0.000001 -0.000204 -0.001632 -0.001476  0.000677
  1C   1s        -0.001498 -0.000262 -0.003578 -0.088400 -0.083139  0.107185
  1C   2s         0.001072  0.000120  0.006442  0.178057  0.167699 -0.224428
  1C   3s        -0.002495 -0.000600  0.003705  0.029150  0.031795 -0.006120
  1C   1pz        0.000204  0.000005  0.001578  0.027486  0.025250 -0.016086
  1C   1px        0.000310  0.000030  0.002594  0.047763  0.043776 -0.034022
  1C   1py        0.000005  0.000018  0.000298  0.006357  0.005540 -0.001957
  1C   2pz       -0.001539 -0.000300  0.001281  0.006558  0.007462  0.003272
  1C   2px       -0.002282 -0.000701  0.003051  0.011210  0.013709  0.002862
  1C   2py       -0.000052 -0.000045  0.000502  0.001362  0.001321  0.001229
  1C   1dz2      -0.000023  0.000002 -0.000008  0.000121  0.000126 -0.000215
  1C   1dxz      -0.000022 -0.000011  0.000140  0.000962  0.000834  0.001012
  1C   1dyz      -0.000108  0.000002  0.000325  0.006096  0.005644 -0.005901
  1C   1dx2y2    -0.000045 -0.000008  0.000222  0.002936  0.002679 -0.001638
  1C   1dxy       0.000076 -0.000005 -0.000117 -0.002693 -0.002559  0.003405
  2C   1s         0.001461  0.000181 -0.005030 -0.088287 -0.081437  0.071745
  2C   2s         0.000726 -0.000023  0.009251  0.177717  0.164824 -0.150524
  2C   3s         0.010554  0.002770 -0.012809  0.022751  0.008526 -0.053261
  2C   1pz        0.000146 -0.000025  0.003534  0.044409  0.040154 -0.015955
  2C   1px       -0.000092 -0.000035  0.002021  0.002456 -0.000049  0.045765
  2C   1py        0.000162  0.000032  0.001908  0.032526  0.029478 -0.025805
  2C   2pz        0.001006  0.000682 -0.001903  0.008434  0.003826 -0.011750
  2C   2px        0.002734  0.000973 -0.003860  0.001893 -0.001835  0.010558
  2C   2py       -0.000411  0.000190 -0.000694  0.005219  0.004139 -0.012062
  2C   1dz2      -0.000060 -0.000000  0.000100 -0.000691 -0.000675  0.001866
  2C   1dxz      -0.000134 -0.000013  0.000433  0.001767  0.001332  0.002848
  2C   1dyz      -0.000236 -0.000004  0.000405  0.005077  0.004549 -0.002955
  2C   1dx2y2    -0.000187  0.000009  0.000298  0.004197  0.003722 -0.002385
  2C   1dxy       0.000064 -0.000005  0.000030 -0.002625 -0.002557  0.004706
  3C   1s         0.012461  0.000687 -0.016710 -0.089831 -0.074673 -0.025069
  3C   2s         0.003778  0.000313  0.032862  0.179998  0.150351  0.052126
  3C   3s        -0.034479 -0.002560  0.018875  0.031446  0.030580  0.061859
  3C   1pz        0.001712  0.000222  0.013623  0.018485  0.010038  0.055229
  3C   1px        0.000364  0.000013  0.002407 -0.043382 -0.042762  0.040891
  3C   1py        0.001525  0.000123  0.007957  0.027043  0.019401  0.028902
  3C   2pz       -0.006748  0.000794 -0.000247  0.008150  0.001680  0.025469
[...]
 7 H  px              0.1       0.4       0.2       0.1       0.5       0.3
 7 H  py              0.0       0.2       0.0       0.0       0.2       0.1
 8 H  s               0.2       0.0       0.5       0.2       1.2       0.6
 8 H  pz              0.1       0.7       0.1       0.0       0.2       0.1
 8 H  px              0.1       0.2       0.4       0.1       0.6       0.3
 8 H  py              0.0       0.6       0.0       0.0       0.0       0.0
 9 H  s               0.1       0.0       0.2       0.2       1.1       0.6
 9 H  pz              0.1       0.0       0.1       0.1       0.5       0.3
 9 H  px              0.0       1.4       0.0       0.0       0.0       0.0
 9 H  py              0.0       0.0       0.0       0.0       0.3       0.1
10 H  s               0.0       0.0       0.0       0.0       0.9       0.6
10 H  pz              0.0       0.8       0.1       0.0       0.1       0.0
10 H  px              0.0       0.6       0.0       0.0       0.4       0.3
10 H  py              0.0       0.2       0.0       0.0       0.2       0.1
11 N  s               1.5       0.0       0.3       3.2       0.4       0.2
11 N  pz              0.2       0.0       1.9       1.6       0.0       0.2
11 N  px              0.0       0.0       0.6       0.5       0.1       0.1
11 N  py              0.2       0.0       0.7       0.6       0.1       0.0
11 N  dz2             0.7       4.3       1.3       3.2       0.0       0.0
11 N  dxz             3.7       0.4       5.7       9.1       0.8       4.2
11 N  dyz             3.6       1.6       9.5       6.5       0.3       0.2
11 N  dx2y2           0.0       0.8      12.5       0.1       0.1       2.5
11 N  dxy             0.1       2.2       0.4       3.8       0.0       0.0
12 N  s               1.8       0.0       0.5       3.8       0.0       0.2
12 N  pz              0.4       0.0       1.8       1.0       0.1       0.2
12 N  px              0.2       0.0       0.3       0.1       0.0       0.0
12 N  py              0.1       0.0       1.0       0.7       0.2       0.2
12 N  dz2             0.0       1.6       2.4       4.3       0.2       0.3
12 N  dxz             0.8       0.1      12.5       1.2       0.4       1.8
12 N  dyz             2.7       0.0       0.3      22.3       0.1       1.9
12 N  dx2y2           0.0       0.6       4.0       4.2       0.0       2.0
12 N  dxy             0.6       0.2       7.3       2.2       0.4       1.4
13 C  s               0.1       0.0       0.7       0.1       0.1       0.0
13 C  pz              0.4       0.0       0.2       0.2       0.0       0.1
13 C  px              1.0       0.0       0.1       0.1       0.0       0.1
13 C  py              0.0       0.0       0.5       0.1       0.0       0.2
13 C  dz2             0.9       0.0       0.2       2.6       0.1       0.7
13 C  dxz             0.0       0.1       0.3       0.0       2.0       3.2
13 C  dyz             2.3       0.0       0.3       1.6       0.6       0.6
13 C  dx2y2           0.8       0.1       0.3       1.1       1.3       1.5
13 C  dxy             0.7       0.0       0.8       4.8       0.3       2.1
14 C  pz              0.5       0.0       0.1       0.2       0.0       0.1
14 C  px              0.0       0.0       0.0       0.0       0.2       0.2
14 C  py              0.5       0.0       0.1       0.2       0.0       0.0
14 C  dz2             2.6       0.0       0.1       0.2       0.5       0.8
14 C  dxz             2.7       0.0       0.0       1.4       0.7       0.5
14 C  dyz             0.2       0.0       0.0       0.3       2.0       2.2
14 C  dx2y2           0.1       0.0       0.1       0.7       1.8       1.8
14 C  dxy             4.5       0.0       0.1       0.6       0.4       0.8
15 C  pz              0.0       0.0       0.2       0.0       0.2       0.2
15 C  px              0.9       0.0       0.1       0.1       0.1       0.1
15 C  py              0.4       0.0       0.0       0.2       0.1       0.0
15 C  dz2             0.5       0.0       0.9       0.1       1.6       1.7
15 C  dxz             2.5       0.0       1.0       0.6       1.1       1.0
15 C  dyz             4.8       0.0       0.3       0.2       0.6       0.8
15 C  dx2y2           4.6       0.0       0.0       0.3       0.0       0.0
15 C  dxy             0.2       0.0       1.4       0.2       2.5       2.5
16 C  pz              0.7       0.0       0.1       0.1       0.1       0.0
16 C  px              1.1       0.0       0.1       0.1       0.1       0.1
16 C  py              0.0       0.0       0.3       0.0       0.2       0.2
16 C  dz2             2.7       0.0       0.3       0.3       0.3       0.2
16 C  dxz             0.0       0.0       2.1       0.1       2.5       2.5
16 C  dyz             3.7       0.0       0.9       0.1       0.8       0.9
16 C  dx2y2           1.8       0.0       1.3       0.0       1.5       1.6
16 C  dxy             3.5       0.0       1.3       0.5       1.0       0.8
17 C  pz              0.7       0.0       0.1       0.1       0.0       0.0
17 C  px              0.1       0.0       0.1       0.0       0.2       0.3
17 C  py              0.5       0.0       0.0       0.1       0.0       0.1
17 C  dz2             2.8       0.0       0.3       0.2       0.6       0.6
17 C  dxz             3.9       0.0       0.4       0.4       0.6       0.8
17 C  dyz             0.0       0.0       1.0       0.0       1.9       2.1
17 C  dx2y2           0.3       0.0       1.0       0.1       1.9       2.2
17 C  dxy             6.1       0.0       0.3       0.3       0.7       0.6
18 C  s               0.0       0.0       0.0       0.1       0.0       0.0
18 C  pz              0.0       0.0       0.0       0.0       0.2       0.2
18 C  px              0.5       0.0       0.0       0.3       0.1       0.1
18 C  py              0.4       0.0       0.0       0.1       0.1       0.1
18 C  dz2             0.4       0.0       0.1       0.0       1.4       1.8
18 C  dxz             1.6       0.0       0.1       1.8       0.9       1.9
18 C  dyz             3.9       0.0       0.1       0.5       0.6       0.5
18 C  dx2y2           3.6       0.0       0.2       1.5       0.0       0.0
18 C  dxy             0.1       0.0       0.1       0.0       2.4       3.2
19 H  s               0.1       0.0       0.0       0.0       0.8       1.1
19 H  pz              0.0       0.0       0.1       0.0       0.4       0.6
19 H  px              1.0       0.0       0.0       0.2       0.2       0.2
19 H  py              0.7       0.0       0.2       0.3       0.1       0.2
20 H  s               0.1       0.0       0.1       0.1       0.7       0.8
20 H  pz              1.1       0.0       0.1       0.1       0.1       0.1
20 H  px              0.1       0.0       0.0       0.0       0.4       0.4
20 H  py              0.5       0.0       0.0       0.2       0.1       0.1
21 H  s               0.1       0.0       0.6       0.0       0.8       0.8
21 H  pz              0.1       0.0       0.4       0.0       0.3       0.3
21 H  px              1.3       0.0       0.1       0.0       0.1       0.1
21 H  py              0.5       0.0       0.2       0.1       0.1       0.1
22 H  s               0.0       0.0       1.1       0.0       0.8       0.8
22 H  pz              0.5       0.0       0.2       0.1       0.1       0.1
22 H  px              0.9       0.0       0.1       0.1       0.1       0.1
22 H  py              0.0       0.0       0.6       0.0       0.4       0.3
23 H  s               0.1       0.0       0.5       0.0       0.8       0.9
23 H  pz              1.2       0.0       0.0       0.0       0.1       0.1
23 H  px              0.1       0.0       0.4       0.0       0.4       0.5
23 H  py              0.7       0.0       0.1       0.1       0.1       0.1



                      *****************************
                      * MAYER POPULATION ANALYSIS *
                      *****************************

  NA   - Mulliken gross atomic population
  ZA   - Total nuclear charge
  QA   - Mulliken gross atomic charge
  VA   - Mayer's total valence
  BVA  - Mayer's bonded valence
  FA   - Mayer's free valence

  ATOM       NA         ZA         QA         VA         BVA        FA
  0 C      5.9788     6.0000     0.0212     3.8302     3.8302    -0.0000
  1 C      5.9729     6.0000     0.0271     3.8147     3.8147    -0.0000
  2 C      5.9814     6.0000     0.0186     3.8316     3.8316    -0.0000
  3 C      5.9847     6.0000     0.0153     3.8585     3.8585    -0.0000
  4 C      5.9835     6.0000     0.0165     3.9250     3.9250     0.0000
  5 C      5.9736     6.0000     0.0264     3.8630     3.8630    -0.0000
  6 H      1.0282     1.0000    -0.0282     0.9923     0.9923    -0.0000
  7 H      1.0170     1.0000    -0.0170     0.9777     0.9777    -0.0000
  8 H      1.0214     1.0000    -0.0214     0.9778     0.9778    -0.0000
  9 H      1.0168     1.0000    -0.0168     0.9776     0.9776    -0.0000
 10 H      1.0295     1.0000    -0.0295     0.9902     0.9902     0.0000
 11 N      7.0785     7.0000    -0.0785     2.9232     2.9232     0.0000
 12 N      7.0769     7.0000    -0.0769     2.9142     2.9142     0.0000
 13 C      5.9411     6.0000     0.0589     3.9295     3.9295     0.0000
 14 C      5.9676     6.0000     0.0324     3.8268     3.8268    -0.0000
 15 C      5.9832     6.0000     0.0168     3.8113     3.8113     0.0000
 16 C      5.9506     6.0000     0.0494     3.8109     3.8109    -0.0000
 17 C      5.9949     6.0000     0.0051     3.8397     3.8397     0.0000
 18 C      5.9572     6.0000     0.0428     3.7901     3.7901    -0.0000
 19 H      0.9981     1.0000     0.0019     1.0014     1.0014     0.0000
 20 H      1.0207     1.0000    -0.0207     1.0020     1.0020     0.0000
 21 H      1.0121     1.0000    -0.0121     0.9786     0.9786     0.0000
 22 H      1.0136     1.0000    -0.0136     0.9777     0.9777     0.0000
 23 H      1.0176     1.0000    -0.0176     0.9776     0.9776    -0.0000

  Mayer bond orders larger than 0.100000
B(  0-C ,  1-C ) :   1.3763 B(  0-C ,  5-C ) :   1.3672 B(  0-C ,  7-H ) :   0.9835 
B(  1-C ,  2-C ) :   1.3727 B(  1-C ,  8-H ) :   0.9885 B(  2-C ,  3-C ) :   1.3709 
B(  2-C ,  9-H ) :   0.9832 B(  3-C ,  4-C ) :   1.3528 B(  3-C , 10-H ) :   0.9981 
B(  4-C ,  5-C ) :   1.3743 B(  4-C , 11-N ) :   1.0038 B(  5-C ,  6-H ) :   0.9917 
B( 11-N , 12-N ) :   1.7109 B( 12-N , 13-C ) :   1.1116 B( 13-C , 14-C ) :   1.3656 
B( 13-C , 18-C ) :   1.3057 B( 14-C , 15-C ) :   1.3663 B( 14-C , 20-H ) :   0.9939 
B( 15-C , 16-C ) :   1.3727 B( 15-C , 21-H ) :   0.9856 B( 16-C , 17-C ) :   1.3634 
B( 16-C , 22-H ) :   0.9885 B( 17-C , 18-C ) :   1.3918 B( 17-C , 23-H ) :   0.9866 
B( 18-C , 19-H ) :   0.9734 

-------
TIMINGS
-------

Total SCF time: 0 days 0 hours 2 min 15 sec 

Total time                  ....     135.085 sec
Sum of individual times     ....     134.615 sec  ( 99.7%)

Fock matrix formation       ....     128.892 sec  ( 95.4%)
  Split-RI-J                ....      10.540 sec  (  8.2% of F)
  Chain of spheres X        ....     102.647 sec  ( 79.6% of F)
  XC integration            ....      15.659 sec  ( 12.1% of F)
    Basis function eval.    ....       6.500 sec  ( 41.5% of XC)
    Density eval.           ....       4.218 sec  ( 26.9% of XC)
    XC-Functional eval.     ....       1.395 sec  (  8.9% of XC)
    XC-Potential eval.      ....       3.141 sec  ( 20.1% of XC)
Diagonalization             ....       0.065 sec  (  0.0%)
Density matrix formation    ....       0.010 sec  (  0.0%)
Population analysis         ....       0.445 sec  (  0.3%)
Initial guess               ....       0.920 sec  (  0.7%)
Orbital Transformation      ....       0.000 sec  (  0.0%)
Orbital Orthonormalization  ....       0.000 sec  (  0.0%)
DIIS solution               ....       0.024 sec  (  0.0%)
SOSCF solution              ....       0.053 sec  (  0.0%)
Grid generation             ....       4.204 sec  (  3.1%)

Maximum memory used throughout the entire SCF-calculation: 97.6 MB


-------------------------------------------------------------------------------
                          DFT DISPERSION CORRECTION                            
                                                                               
                              DFTD3 V3.1  Rev 1                                
                          USING Becke-Johnson damping                          
-------------------------------------------------------------------------------
The B3LYP functional is recognized
Active option DFTDOPT                   ...         4   

C6 coefficients used: 
	2 C6 for element 	 1
Z=1  CN=    0.911800  	 C6(AA)=    3.026700
Z=1  CN=    0.000000  	 C6(AA)=    7.591600
	5 C6 for element 	 6
Z=6  CN=    0.000000  	 C6(AA)=   49.113000
Z=6  CN=    0.986800  	 C6(AA)=   43.245200
Z=6  CN=    1.998500  	 C6(AA)=   29.360200
Z=6  CN=    2.998700  	 C6(AA)=   25.780900
Z=6  CN=    3.984400  	 C6(AA)=   18.206700
	4 C6 for element 	 7
Z=7  CN=    0.000000  	 C6(AA)=   25.268500
Z=7  CN=    0.994400  	 C6(AA)=   22.124100
Z=7  CN=    2.014300  	 C6(AA)=   19.676800
Z=7  CN=    2.990300  	 C6(AA)=   15.581700

  #           XYZ [au]              r0(AA) [Ang.]  CN      C6(AA)     C8(AA)    C10(AA) [au]
  1  -17.91685    7.88558   -0.55178  c   1.455   3.127      25.4      733.3    25979.4
  2  -18.03188    6.32448   -2.67731  c   1.455   3.128      25.4      733.2    25977.0
  3  -15.86852    5.05498   -3.49960  c   1.455   3.126      25.4      733.4    25982.8
  4  -13.59012    5.33232   -2.19019  c   1.455   3.158      25.2      729.7    25854.1
  5  -13.46594    6.87615   -0.02143  c   1.455   3.192      25.1      725.1    25690.7
  6  -15.64168    8.16845    0.76201  c   1.455   3.168      25.2      728.5    25810.1
  7  -15.57361    9.38910    2.40311  h   1.091   1.004       3.1       37.3      552.9
  8  -19.58983    8.88071    0.07617  h   1.091   1.003       3.1       37.3      553.0
  9  -19.79307    6.10971   -3.69487  h   1.091   1.003       3.1       37.3      553.0
 10  -15.95411    3.86218   -5.15897  h   1.091   1.003       3.1       37.3      553.0
 11  -11.93610    4.35497   -2.88658  h   1.091   1.004       3.1       37.3      552.9
 12  -11.17903    7.26071    1.35558  n   1.311   2.120      19.5      429.8    11615.2
 13  -10.37817    5.96341    3.17474  n   1.311   2.118      19.5      429.9    11617.7
 14  -11.57370    3.81111    4.27575  c   1.455   3.176      25.2      727.5    25773.1
 15  -10.43100    2.67128    6.37641  c   1.455   3.163      25.2      729.1    25832.1
 16  -11.55214    0.58389    7.54615  c   1.455   3.126      25.4      733.3    25981.9
 17  -13.84066   -0.36963    6.63970  c   1.455   3.127      25.4      733.2    25978.1
 18  -15.01762    0.77150    4.57078  c   1.455   3.126      25.4      733.4    25982.7
 19  -13.90183    2.85863    3.39540  c   1.455   3.172      25.2      728.0    25791.0
 20  -14.86939    3.72680    1.81869  h   1.091   1.014       3.1       37.3      552.1
 21   -8.66016    3.39816    7.10000  h   1.091   1.004       3.1       37.3      552.9
 22  -10.64810   -0.29149    9.15854  h   1.091   1.003       3.1       37.3      553.0
 23  -14.70853   -1.98321    7.54879  h   1.091   1.003       3.1       37.3      553.0
 24  -16.80129    0.04454    3.88257  h   1.091   1.003       3.1       37.3      553.0

molecular C6(AA) [au] = 7510.078777 


            DFT-D V3
 parameters
 s6 scaling factor         :     1.0000 
 a1 scaling factor         :     0.3981 
 s8 scaling factor         :     1.9889 
 a2 scaling factor         :     4.4211 
 ad hoc parameters k1-k3   :    16.0000     1.3333    -4.0000 

 Edisp/kcal,au: -32.789535819840  -0.052253445848 
 E6   /kcal   : -15.235605393 
 E8   /kcal   : -17.553930427 
 % E8         :  53.535159885 

-------------------------   ----------------
Dispersion correction           -0.052253446
-------------------------   ----------------


-------------------------   --------------------
FINAL SINGLE POINT ENERGY      -572.009934493992
-------------------------   --------------------


                            ***************************************
                            *     ORCA property calculations      *
                            ***************************************

                                    ---------------------
                                    Active property flags
                                    ---------------------
   (+) Dipole Moment


------------------------------------------------------------------------------
                       ORCA ELECTRIC PROPERTIES CALCULATION
------------------------------------------------------------------------------

Dipole Moment Calculation                       ... on
Quadrupole Moment Calculation                   ... off
Polarizability Calculation                      ... off
GBWName                                         ... Z_T_azobenzene.gbw
Electron density                                ... Z_T_azobenzene.scfp
SHARK General Contraction Test:  Segmented basis detected
   -> Pre-screening matrix found on disk - Trying to read with NShells=114
   -> Passing Pre-screening matrix on to SHARK ...ok
   -> Leaving CheckPreScreeningMatrix
----------------------
SHARK INTEGRAL PACKAGE
----------------------

Number of atoms                             ...     24
Number of basis functions                   ...    246
Number of shells                            ...    114
Maximum angular momentum                    ...      2
Integral batch strategy                     ... SHARK/LIBINT Hybrid
RI-J (if used) integral strategy            ... SPLIT-RIJ (Revised 2003 algorithm where possible)
Printlevel                                  ...      2
Contraction scheme used                     ... SEGMENTED contraction
Coulomb Range Separation                    ... NOT USED
Exchange Range Separation                   ... NOT USED
Finite Nucleus Model                        ... NOT USED
Auxiliary Coulomb fitting basis             ... AVAILABLE
   # of basis functions in Aux-J            ...    796
   # of shells in Aux-J                     ...    260
   Maximum angular momentum in Aux-J        ...      4
Auxiliary J/K fitting basis                 ... NOT available
Auxiliary Correlation fitting basis         ... NOT available
Auxiliary 'external' fitting basis          ... NOT available
Integral threshold                          ...     1.000000e-10
Primitive cut-off                           ...     1.000000e-11
Primitive pair pre-selection threshold      ...     1.000000e-11

The origin for moment calculation is the CENTER OF MASS  = (-13.738636,  4.517445  2.083386)

-------------
DIPOLE MOMENT
-------------
                                X             Y             Z
Electronic contribution:      4.57325       2.83256       0.51047
Nuclear contribution   :     -5.51721      -3.80209      -0.29006
                        -----------------------------------------
Total Dipole Moment    :     -0.94396      -0.96953       0.22041
                        -----------------------------------------
Magnitude (a.u.)       :      1.37100
Magnitude (Debye)      :      3.48481



--------------------
Rotational spectrum 
--------------------
 
Rotational constants in cm-1:     0.048711     0.015371     0.013331 
Rotational constants in MHz :  1460.316477   460.800947   399.666085 

 Dipole components along the rotational axes: 
x,y,z [a.u.] :     0.302049     1.337238    -0.014268 
x,y,z [Debye]:     0.767749     3.398990    -0.036265 

 

Timings for individual modules:

Sum of individual times         ...      136.145 sec (=   2.269 min)
GTO integral calculation        ...        0.329 sec (=   0.005 min)   0.2 %
SCF iterations                  ...      135.816 sec (=   2.264 min)  99.8 %
                             ****ORCA TERMINATED NORMALLY****
TOTAL RUN TIME: 0 days 0 hours 2 minutes 16 seconds 377 msec
