
                                 *****************
                                 * O   R   C   A *
                                 *****************

                                            #,                                       
                                            ###                                      
                                            ####                                     
                                            #####                                    
                                            ######                                   
                                           ########,                                 
                                     ,,################,,,,,                         
                               ,,#################################,,                 
                          ,,##########################################,,             
                       ,#########################################, ''#####,          
                    ,#############################################,,   '####,        
                  ,##################################################,,,,####,       
                ,###########''''           ''''###############################       
              ,#####''   ,,,,##########,,,,          '''####'''          '####       
            ,##' ,,,,###########################,,,                        '##       
           ' ,,###''''                  '''############,,,                           
         ,,##''                                '''############,,,,        ,,,,,,###''
      ,#''                                            '''#######################'''  
     '                                                          ''''####''''         
             ,#######,   #######,   ,#######,      ##                                
            ,#'     '#,  ##    ##  ,#'     '#,    #''#        ######   ,####,        
            ##       ##  ##   ,#'  ##            #'  '#       #        #'  '#        
            ##       ##  #######   ##           ,######,      #####,   #    #        
            '#,     ,#'  ##    ##  '#,     ,#' ,#      #,         ##   #,  ,#        
             '#######'   ##     ##  '#######'  #'      '#     #####' # '####'        



                  #######################################################
                  #                        -***-                        #
                  #          Department of theory and spectroscopy      #
                  #    Directorship and core code : Frank Neese         #
                  #        Max Planck Institute fuer Kohlenforschung    #
                  #                Kaiser Wilhelm Platz 1               #
                  #                 D-45470 Muelheim/Ruhr               #
                  #                      Germany                        #
                  #                                                     #
                  #                  All rights reserved                #
                  #                        -***-                        #
                  #######################################################


                         Program Version 5.0.3 -  RELEASE  -


 With contributions from (in alphabetic order):
   Daniel Aravena         : Magnetic Suceptibility
   Michael Atanasov       : Ab Initio Ligand Field Theory (pilot matlab implementation)
   Alexander A. Auer      : GIAO ZORA, VPT2 properties, NMR spectrum
   Ute Becker             : Parallelization
   Giovanni Bistoni       : ED, misc. LED, open-shell LED, HFLD
   Martin Brehm           : Molecular dynamics
   Dmytro Bykov           : SCF Hessian
   Vijay G. Chilkuri      : MRCI spin determinant printing, contributions to CSF-ICE
   Dipayan Datta          : RHF DLPNO-CCSD density
   Achintya Kumar Dutta   : EOM-CC, STEOM-CC
   Dmitry Ganyushin       : Spin-Orbit,Spin-Spin,Magnetic field MRCI
   Miquel Garcia          : C-PCM and meta-GGA Hessian, CC/C-PCM, Gaussian charge scheme
   Yang Guo               : DLPNO-NEVPT2, F12-NEVPT2, CIM, IAO-localization
   Andreas Hansen         : Spin unrestricted coupled pair/coupled cluster methods
   Benjamin Helmich-Paris : MC-RPA, TRAH-SCF, COSX integrals
   Lee Huntington         : MR-EOM, pCC
   Robert Izsak           : Overlap fitted RIJCOSX, COSX-SCS-MP3, EOM
   Marcus Kettner         : VPT2
   Christian Kollmar      : KDIIS, OOCD, Brueckner-CCSD(T), CCSD density, CASPT2, CASPT2-K
   Simone Kossmann        : Meta GGA functionals, TD-DFT gradient, OOMP2, MP2 Hessian
   Martin Krupicka        : Initial AUTO-CI
   Lucas Lang             : DCDCAS
   Marvin Lechner         : AUTO-CI (C++ implementation), FIC-MRCC
   Dagmar Lenk            : GEPOL surface, SMD
   Dimitrios Liakos       : Extrapolation schemes; Compound Job, initial MDCI parallelization
   Dimitrios Manganas     : Further ROCIS development; embedding schemes
   Dimitrios Pantazis     : SARC Basis sets
   Anastasios Papadopoulos: AUTO-CI, single reference methods and gradients
   Taras Petrenko         : DFT Hessian,TD-DFT gradient, ASA, ECA, R-Raman, ABS, FL, XAS/XES, NRVS
   Peter Pinski           : DLPNO-MP2, DLPNO-MP2 Gradient
   Christoph Reimann      : Effective Core Potentials
   Marius Retegan         : Local ZFS, SOC
   Christoph Riplinger    : Optimizer, TS searches, QM/MM, DLPNO-CCSD(T), (RO)-DLPNO pert. Triples
   Tobias Risthaus        : Range-separated hybrids, TD-DFT gradient, RPA, STAB
   Michael Roemelt        : Original ROCIS implementation
   Masaaki Saitow         : Open-shell DLPNO-CCSD energy and density
   Barbara Sandhoefer     : DKH picture change effects
   Avijit Sen             : IP-ROCIS
   Kantharuban Sivalingam : CASSCF convergence, NEVPT2, FIC-MRCI
   Bernardo de Souza      : ESD, SOC TD-DFT
   Georgi Stoychev        : AutoAux, RI-MP2 NMR, DLPNO-MP2 response
   Willem Van den Heuvel  : Paramagnetic NMR
   Boris Wezisla          : Elementary symmetry handling
   Frank Wennmohs         : Technical directorship


 We gratefully acknowledge several colleagues who have allowed us to
 interface, adapt or use parts of their codes:
   Stefan Grimme, W. Hujo, H. Kruse, P. Pracht,  : VdW corrections, initial TS optimization,
                  C. Bannwarth, S. Ehlert          DFT functionals, gCP, sTDA/sTD-DF
   Ed Valeev, F. Pavosevic, A. Kumar             : LibInt (2-el integral package), F12 methods
   Garnet Chan, S. Sharma, J. Yang, R. Olivares  : DMRG
   Ulf Ekstrom                                   : XCFun DFT Library
   Mihaly Kallay                                 : mrcc  (arbitrary order and MRCC methods)
   Jiri Pittner, Ondrej Demel                    : Mk-CCSD
   Frank Weinhold                                : gennbo (NPA and NBO analysis)
   Christopher J. Cramer and Donald G. Truhlar   : smd solvation model
   Lars Goerigk                                  : TD-DFT with DH, B97 family of functionals
   V. Asgeirsson, H. Jonsson                     : NEB implementation
   FAccTs GmbH                                   : IRC, NEB, NEB-TS, DLPNO-Multilevel, CI-OPT
                                                   MM, QMMM, 2- and 3-layer-ONIOM, Crystal-QMMM,
                                                   LR-CPCM, SF, NACMEs, symmetry and pop. for TD-DFT,
                                                   nearIR, NL-DFT gradient (VV10), updates on ESD,
                                                   ML-optimized integration grids
   S Lehtola, MJT Oliveira, MAL Marques          : LibXC Library
   Liviu Ungur et al                             : ANISO software


 Your calculation uses the libint2 library for the computation of 2-el integrals
 For citations please refer to: http://libint.valeyev.net

 Your ORCA version has been built with support for libXC version: 5.1.0
 For citations please refer to: https://tddft.org/programs/libxc/

 This ORCA versions uses:
   CBLAS   interface :  Fast vector & matrix operations
   LAPACKE interface :  Fast linear algebra routines
   SCALAPACK package :  Parallel linear algebra routines
   Shared memory     :  Shared parallel matrices
   BLAS/LAPACK       :  OpenBLAS 0.3.15  USE64BITINT DYNAMIC_ARCH NO_AFFINITY Zen SINGLE_THREADED
        Core in use  :  Zen
   Copyright (c) 2011-2014, The OpenBLAS Project


Your calculation utilizes the atom-pairwise dispersion correction
with the Becke-Johnson damping scheme (D3BJ)
Cite in your paper:
S.Grimme, S.Ehrlich, L.Goerigk, J Comput Chem, (2011), 32, 1456–1465 
S.Grimme, J.Antony, S.Ehrlich and H.Krieg, J.Chem.Phys., 132, (2010), 154104 
   

================================================================================

----- Orbital basis set information -----
Your calculation utilizes the basis: def2-SVP
   F. Weigend and R. Ahlrichs, Phys. Chem. Chem. Phys. 7, 3297 (2005).

----- AuxJ basis set information -----
Your calculation utilizes the auxiliary basis: def2/J
   F. Weigend, Phys. Chem. Chem. Phys. 8, 1057 (2006).

================================================================================
                                        WARNINGS
                       Please study these warnings very carefully!
================================================================================

INFO   : Checking CIS options ...

INFO   : Since TDDFT/CIS Mode == RPA_AOINTS, the TAMMDANCOFF/TDA keyword is ignored. 


WARNING: CIS/ROCIS methods need fully converged wavefunctions
  ===> : Setting SCFConvForced true
         You can overwrite this default with %scf ConvForced false 


INFO   : the flag for use of the SHARK integral package has been found!

================================================================================
                                       INPUT FILE
================================================================================
NAME = E_azobenzene.inp
|  1> ! B3LYP D3BJ RIJCOSX def2/J def2-SVP LargePrint
|  2> %Pal NProcs 1 end
|  3> %MaxCore 4000
|  4> %SCF
|  5>     AutoTRAH    True
|  6>     CNVDamp     True
|  7>     CNVZerner   False
|  8>     end
|  9> %cis 
| 10>     NRoots      2
| 11>     Triplets    false
| 12>     TDA         false
| 13>     IRoot       None
| 14>     DoSOC       false
| 15>     DoNTO       True
| 16>     end
| 17> %method
| 18>     FrozenCore FC_ELECTRONS
| 19>     end
| 20> *xyz 0 1
| 21> C            -9.11987000     3.14812000     0.43515000
| 22> C            -9.52515000     3.41192000    -0.87601000
| 23> C            -8.57035000     3.65716000    -1.86652000
| 24> C            -7.20883000     3.63900000    -1.54746000
| 25> C            -6.79182000     3.37550000    -0.23573000
| 26> C            -7.75923000     3.12901000     0.75848000
| 27> H            -7.46603000     2.92270000     1.77990000
| 28> H            -9.86034000     2.95834000     1.20147000
| 29> H           -10.57853000     3.42628000    -1.12434000
| 30> H            -8.88504000     3.86138000    -2.88179000
| 31> H            -6.47679000     3.83030000    -2.32227000
| 32> N            -5.40186000     3.36510000     0.05175000
| 33> N            -4.96694000     3.13676000     1.19849000
| 34> C            -3.57698000     3.12653000     1.48601000
| 35> C            -3.15993000     2.86180000     2.79748000
| 36> C            -1.79842000     2.84378000     3.11657000
| 37> C            -0.84367000     3.09043000     2.12636000
| 38> C            -1.24899000     3.35548000     0.81547000
| 39> C            -2.60963000     3.37442000     0.49210000
| 40> H            -2.90287000     3.58174000    -0.52911000
| 41> H            -3.89193000     2.66941000     3.57205000
| 42> H            -1.48369000     2.63857000     4.13163000
| 43> H             0.20971000     3.07618000     2.37471000
| 44> H            -0.50856000     3.54637000     0.04938000
| 45> *
| 46> 
| 47>                          ****END OF INPUT****
================================================================================

                       ****************************
                       * Single Point Calculation *
                       ****************************

---------------------------------
CARTESIAN COORDINATES (ANGSTROEM)
---------------------------------
  C     -9.119870    3.148120    0.435150
  C     -9.525150    3.411920   -0.876010
  C     -8.570350    3.657160   -1.866520
  C     -7.208830    3.639000   -1.547460
  C     -6.791820    3.375500   -0.235730
  C     -7.759230    3.129010    0.758480
  H     -7.466030    2.922700    1.779900
  H     -9.860340    2.958340    1.201470
  H    -10.578530    3.426280   -1.124340
  H     -8.885040    3.861380   -2.881790
  H     -6.476790    3.830300   -2.322270
  N     -5.401860    3.365100    0.051750
  N     -4.966940    3.136760    1.198490
  C     -3.576980    3.126530    1.486010
  C     -3.159930    2.861800    2.797480
  C     -1.798420    2.843780    3.116570
  C     -0.843670    3.090430    2.126360
  C     -1.248990    3.355480    0.815470
  C     -2.609630    3.374420    0.492100
  H     -2.902870    3.581740   -0.529110
  H     -3.891930    2.669410    3.572050
  H     -1.483690    2.638570    4.131630
  H      0.209710    3.076180    2.374710
  H     -0.508560    3.546370    0.049380

----------------------------
CARTESIAN COORDINATES (A.U.)
----------------------------
  NO LB      ZA    FRAG     MASS         X           Y           Z
   0 C     6.0000    0    12.011  -17.234057    5.949085    0.822314
   1 C     6.0000    0    12.011  -17.999925    6.447594   -1.655419
   2 C     6.0000    0    12.011  -16.195614    6.911031   -3.527212
   3 C     6.0000    0    12.011  -13.622714    6.876713   -2.924276
   4 C     6.0000    0    12.011  -12.834680    6.378771   -0.445465
   5 C     6.0000    0    12.011  -14.662820    5.912972    1.433319
   6 H     1.0000    0     1.008  -14.108752    5.523103    3.363524
   7 H     1.0000    0     1.008  -18.633342    5.590452    2.270449
   8 H     1.0000    0     1.008  -19.990525    6.474731   -2.124695
   9 H     1.0000    0     1.008  -16.790292    7.296951   -5.445794
  10 H     1.0000    0     1.008  -12.239359    7.238218   -4.388454
  11 N     7.0000    0    14.007  -10.208036    6.359117    0.097793
  12 N     7.0000    0    14.007   -9.386156    5.927617    2.264818
  13 C     6.0000    0    12.011   -6.759513    5.908285    2.808152
  14 C     6.0000    0    12.011   -5.971402    5.408018    5.286471
  15 C     6.0000    0    12.011   -3.398521    5.373965    5.889464
  16 C     6.0000    0    12.011   -1.594305    5.840066    4.018238
  17 C     6.0000    0    12.011   -2.360249    6.340938    1.541015
  18 C     6.0000    0    12.011   -4.931486    6.376730    0.929934
  19 H     1.0000    0     1.008   -5.485629    6.768508   -0.999873
  20 H     1.0000    0     1.008   -7.354682    5.044454    6.750196
  21 H     1.0000    0     1.008   -2.803768    4.986175    7.807649
  22 H     1.0000    0     1.008    0.396294    5.813138    4.487552
  23 H     1.0000    0     1.008   -0.961039    6.701668    0.093315

--------------------------------
INTERNAL COORDINATES (ANGSTROEM)
--------------------------------
 C      0   0   0     0.000000000000     0.00000000     0.00000000
 C      1   0   0     1.397491632891     0.00000000     0.00000000
 C      2   1   0     1.397460467312   119.99933617     0.00000000
 C      3   2   1     1.398522713294   120.07800902     0.00000000
 C      4   3   2     1.401415421280   120.37600268     0.00000000
 C      1   2   3     1.398659604979   120.10536376     0.00000000
 H      6   1   2     1.082510449141   118.96129793   179.99904031
 H      1   2   3     1.082385611370   119.93100493   179.99894563
 H      2   1   3     1.082350877904   120.00062239   179.99928659
 H      3   2   1     1.082362590540   119.95506822   179.99901726
 H      4   3   2     1.082962966911   119.50882145   180.00034787
 N      5   4   3     1.419415975675   118.83824963   180.00061091
 N     12   5   4     1.247520416506   121.93158413   180.02902741
 C     13  12   5     1.419422842179   121.93168026   180.00829930
 C     14  13  12     1.401415797078   118.83812474   180.02916587
 C     15  14  13     1.398518011539   120.37583391   179.99998634
 C     16  15  14     1.397461852467   120.07799668     0.00000000
 C     17  16  15     1.397486456822   119.99948145     0.00000000
 C     18  17  16     1.398666539994   120.10526757     0.00000000
 H     19  18  17     1.082516117247   118.96146909   179.99933232
 H     15  14  13     1.082957338495   120.11512372     0.00000000
 H     16  15  14     1.082364504499   119.96715069   180.00094274
 H     17  16  15     1.082354012974   120.00030255   179.99959341
 H     18  17  16     1.082390625006   119.93139449   179.99997657

---------------------------
INTERNAL COORDINATES (A.U.)
---------------------------
 C      0   0   0     0.000000000000     0.00000000     0.00000000
 C      1   0   0     2.640876460610     0.00000000     0.00000000
 C      2   1   0     2.640817566201   119.99933617     0.00000000
 C      3   2   1     2.642824920195   120.07800902     0.00000000
 C      4   3   2     2.648291346072   120.37600268     0.00000000
 C      1   2   3     2.643083607989   120.10536376     0.00000000
 H      6   1   2     2.045648285985   118.96129793   179.99904031
 H      1   2   3     2.045412376786   119.93100493   179.99894563
 H      2   1   3     2.045346740048   120.00062239   179.99928659
 H      3   2   1     2.045368873722   119.95506822   179.99901726
 H      4   3   2     2.046503420640   119.50882145   180.00034787
 N      5   4   3     2.682307464137   118.83824963   180.00061091
 N     12   5   4     2.357471933672   121.93158413   180.02902741
 C     13  12   5     2.682320439951   121.93168026   180.00829930
 C     14  13  12     2.648292056229   118.83812474   180.02916587
 C     15  14  13     2.642816035166   120.37583391   179.99998634
 C     16  15  14     2.640820183765   120.07799668     0.00000000
 C     17  16  15     2.640866679257   119.99948145     0.00000000
 C     18  17  16     2.643096713269   120.10526757     0.00000000
 H     19  18  17     2.045658997153   118.96146909   179.99933232
 H     15  14  13     2.046492784476   120.11512372     0.00000000
 H     16  15  14     2.045372490581   119.96715069   180.00094274
 H     17  16  15     2.045352664471   120.00030255   179.99959341
 H     18  17  16     2.045421851184   119.93139449   179.99997657

---------------------
BASIS SET INFORMATION
---------------------
There are 3 groups of distinct atoms

 Group   1 Type C   : 7s4p1d contracted to 3s2p1d pattern {511/31/1}
 Group   2 Type H   : 4s1p contracted to 2s1p pattern {31/1}
 Group   3 Type N   : 7s4p1d contracted to 3s2p1d pattern {511/31/1}

Atom   0C    basis set group =>   1
Atom   1C    basis set group =>   1
Atom   2C    basis set group =>   1
Atom   3C    basis set group =>   1
Atom   4C    basis set group =>   1
Atom   5C    basis set group =>   1
Atom   6H    basis set group =>   2
Atom   7H    basis set group =>   2
Atom   8H    basis set group =>   2
Atom   9H    basis set group =>   2
Atom  10H    basis set group =>   2
Atom  11N    basis set group =>   3
Atom  12N    basis set group =>   3
Atom  13C    basis set group =>   1
Atom  14C    basis set group =>   1
Atom  15C    basis set group =>   1
Atom  16C    basis set group =>   1
Atom  17C    basis set group =>   1
Atom  18C    basis set group =>   1
Atom  19H    basis set group =>   2
Atom  20H    basis set group =>   2
Atom  21H    basis set group =>   2
Atom  22H    basis set group =>   2
Atom  23H    basis set group =>   2

-------------------------
BASIS SET IN INPUT FORMAT
-------------------------

 # Basis set for element : H 
 NewGTO H 
 S 3 
   1      13.0107010000      0.0334854848
   2       1.9622572000      0.2347218709
   3       0.4445379600      0.8137702853
 S 1 
   1       0.1219496200      1.0000000000
 P 1 
   1       0.8000000000      1.0000000000
  end;

 # Basis set for element : C 
 NewGTO C 
 S 5 
   1    1238.4016938000      0.0055173650
   2     186.2900499200      0.0410888285
   3      42.2511763460      0.1822538213
   4      11.6765579320      0.4682845944
   5       3.5930506482      0.4457581734
 S 1 
   1       0.4024514736      1.0000000000
 S 1 
   1       0.1309018267      1.0000000000
 P 3 
   1       9.4680970621      0.0568883320
   2       2.0103545142      0.3129405934
   3       0.5477100471      0.7606501651
 P 1 
   1       0.1526861379      1.0000000000
 D 1 
   1       0.8000000000      1.0000000000
  end;

 # Basis set for element : N 
 NewGTO N 
 S 5 
   1    1712.8415853000     -0.0054477995
   2     257.6481267700     -0.0406271746
   3      58.4582458530     -0.1811196225
   4      16.1983679050     -0.4684397556
   5       5.0052600809     -0.4461684629
 S 1 
   1       0.5873185657      1.0000000000
 S 1 
   1       0.1876459225      1.0000000000
 P 3 
   1      13.5714702330     -0.0588481170
   2       2.9257372874     -0.3202462476
   3       0.7992775075     -0.7532822652
 P 1 
   1       0.2195434803      1.0000000000
 D 1 
   1       1.0000000000      1.0000000000
  end;

---------------------------------
AUXILIARY/J BASIS SET INFORMATION
---------------------------------
There are 3 groups of distinct atoms

 Group   1 Type C   : 12s5p4d2f1g contracted to 6s4p3d1f1g pattern {711111/2111/211/2/1}
 Group   2 Type H   : 5s2p1d contracted to 3s1p1d pattern {311/2/1}
 Group   3 Type N   : 12s5p4d2f1g contracted to 6s4p3d1f1g pattern {711111/2111/211/2/1}

Atom   0C    basis set group =>   1
Atom   1C    basis set group =>   1
Atom   2C    basis set group =>   1
Atom   3C    basis set group =>   1
Atom   4C    basis set group =>   1
Atom   5C    basis set group =>   1
Atom   6H    basis set group =>   2
Atom   7H    basis set group =>   2
Atom   8H    basis set group =>   2
Atom   9H    basis set group =>   2
Atom  10H    basis set group =>   2
Atom  11N    basis set group =>   3
Atom  12N    basis set group =>   3
Atom  13C    basis set group =>   1
Atom  14C    basis set group =>   1
Atom  15C    basis set group =>   1
Atom  16C    basis set group =>   1
Atom  17C    basis set group =>   1
Atom  18C    basis set group =>   1
Atom  19H    basis set group =>   2
Atom  20H    basis set group =>   2
Atom  21H    basis set group =>   2
Atom  22H    basis set group =>   2
Atom  23H    basis set group =>   2

-------------------------------------
AUXILIARY/J BASIS SET IN INPUT FORMAT
-------------------------------------

 # Auxiliary/J basis set for element : H 
 NewAuxJGTO H 
 S 3 
   1      15.6752927000      0.1007184237
   2       3.6063578000      0.3404257499
   3       1.2080016000      0.6491996172
 S 1 
   1       0.4726794000      1.0000000000
 S 1 
   1       0.2018100000      1.0000000000
 P 2 
   1       2.0281365000      0.5596620919
   2       0.5358730000      0.5596620919
 D 1 
   1       2.2165124000      1.0000000000
  end;

 # Auxiliary/J basis set for element : C 
 NewAuxJGTO C 
 S 7 
   1    1861.0916331000      0.0134602335
   2     642.9939764000      0.0299160374
   3     235.1105725000      0.1008649584
   4      90.7028894000      0.2370970548
   5      36.7794552000      0.3924037254
   6      15.6046273000      0.3195862154
   7       6.8907294000      0.0530104441
 S 1 
   1       3.1478850000     -1.0000000000
 S 1 
   1       1.4777287000      1.0000000000
 S 1 
   1       0.7076466000      1.0000000000
 S 1 
   1       0.3430122000      1.0000000000
 S 1 
   1       0.1669453000      1.0000000000
 P 2 
   1      13.5472892000     -0.6769313712
   2       5.4669419000     -0.3779500978
 P 1 
   1       2.1751721000      1.0000000000
 P 1 
   1       0.8582194000      1.0000000000
 P 1 
   1       0.3376720000      1.0000000000
 D 2 
   1       5.9287253000     -0.3533329857
   2       1.9809209000     -0.7456525731
 D 1 
   1       0.8055417000     -1.0000000000
 D 1 
   1       0.3531244000     -1.0000000000
 F 2 
   1       1.6755626000      0.6311076882
   2       0.5997536000      0.4968166032
 G 1 
   1       1.0024600000     -1.0000000000
  end;

 # Auxiliary/J basis set for element : N 
 NewAuxJGTO N 
 S 7 
   1    2542.9401785000      0.0128431329
   2    1029.5472946000      0.0206655120
   3     424.9053546000      0.0652200677
   4     178.4573708000      0.1617388940
   5      76.1362742000      0.3094256941
   6      32.9338653000      0.3918849307
   7      14.4155436000      0.1822470660
 S 1 
   1       6.3718891000     -1.0000000000
 S 1 
   1       2.8381742000      1.0000000000
 S 1 
   1       1.2711793000      1.0000000000
 S 1 
   1       0.5712407000      1.0000000000
 S 1 
   1       0.2569887000      1.0000000000
 P 2 
   1      17.8975990000     -1.0974070137
   2       6.5346319000      0.1380055963
 P 1 
   1       2.3523645000      1.0000000000
 P 1 
   1       0.8397377000      1.0000000000
 P 1 
   1       0.2989335000      1.0000000000
 D 2 
   1       7.6909870000      0.1770780943
   2       2.3044972000      0.8918319220
 D 1 
   1       0.8403987000      1.0000000000
 D 1 
   1       0.3303797000      1.0000000000
 F 2 
   1       2.3331076000      0.6223178877
   2       0.8446137000      0.5036714203
 G 1 
   1       1.4037700000     -1.0000000000
  end;

------------------------------------------------------------------------------
                           ORCA GTO INTEGRAL CALCULATION
                           -- RI-GTO INTEGRALS CHOSEN --
------------------------------------------------------------------------------
------------------------------------------------------------------------------
                   ___                                                        
                  /   \      - P O W E R E D   B Y -                         
                 /     \                                                     
                 |  |  |   _    _      __       _____    __    __             
                 |  |  |  | |  | |    /  \     |  _  \  |  |  /  |          
                  \  \/   | |  | |   /    \    | | | |  |  | /  /          
                 / \  \   | |__| |  /  /\  \   | |_| |  |  |/  /          
                |  |  |   |  __  | /  /__\  \  |    /   |      \           
                |  |  |   | |  | | |   __   |  |    \   |  |\   \          
                \     /   | |  | | |  |  |  |  | |\  \  |  | \   \       
                 \___/    |_|  |_| |__|  |__|  |_| \__\ |__|  \__/        
                                                                              
                      - O R C A' S   B I G   F R I E N D -                    
                                      &                                       
                       - I N T E G R A L  F E E D E R -                       
                                                                              
 v1 FN, 2020, v2 2021                                                         
------------------------------------------------------------------------------


Reading SHARK input file E_azobenzene.SHARKINP.tmp ... SHARK General Contraction Test:  Segmented basis detected
   -> Pre-screening matrix *NOT* found on disk - recalculating with NShells=114
   -> Leaving CheckPreScreeningMatrix
ok
----------------------
SHARK INTEGRAL PACKAGE
----------------------

Number of atoms                             ...     24
Number of basis functions                   ...    246
Number of shells                            ...    114
Maximum angular momentum                    ...      2
Integral batch strategy                     ... SHARK/LIBINT Hybrid
RI-J (if used) integral strategy            ... SPLIT-RIJ (Revised 2003 algorithm where possible)
Printlevel                                  ...      2
Contraction scheme used                     ... SEGMENTED contraction
Coulomb Range Separation                    ... NOT USED
Exchange Range Separation                   ... NOT USED
Finite Nucleus Model                        ... NOT USED
Auxiliary Coulomb fitting basis             ... AVAILABLE
   # of basis functions in Aux-J            ...    796
   # of shells in Aux-J                     ...    260
   Maximum angular momentum in Aux-J        ...      4
Auxiliary J/K fitting basis                 ... NOT available
Auxiliary Correlation fitting basis         ... NOT available
Auxiliary 'external' fitting basis          ... NOT available
Integral threshold                          ...     1.000000e-10
Primitive cut-off                           ...     1.000000e-11
Primitive pair pre-selection threshold      ...     1.000000e-11

Calculating pre-screening integrals         ... done (  0.0 sec) Dimension = 114
Organizing shell pair data                  ... done (  0.1 sec)
Shell pair information
Total number of shell pairs                 ...      6555
Shell pairs after pre-screening             ...      4984
Total number of primitive shell pairs       ...     24083
Primitive shell pairs kept                  ...     12461
          la=0 lb=0:   1508 shell pairs
          la=1 lb=0:   1812 shell pairs
          la=1 lb=1:    584 shell pairs
          la=2 lb=0:    624 shell pairs
          la=2 lb=1:    388 shell pairs
          la=2 lb=2:     68 shell pairs

Calculating one electron integrals          ... done (  0.0 sec)
Calculating RI/J V-Matrix + Cholesky decomp.... done (  0.0 sec)
Calculating Nuclear repulsion               ... done (  0.0 sec) ENN=    744.038033919921 Eh

SHARK setup successfully completed in   0.6 seconds

Maximum memory used throughout the entire GTOINT-calculation: 36.8 MB
-------------------------------------------------------------------------------
                                 ORCA SCF
-------------------------------------------------------------------------------

------------
SCF SETTINGS
------------
Hamiltonian:
 Density Functional     Method          .... DFT(GTOs)
 Exchange Functional    Exchange        .... B88
   X-Alpha parameter    XAlpha          ....  0.666667
   Becke's b parameter  XBeta           ....  0.004200
 Correlation Functional Correlation     .... LYP
 LDA part of GGA corr.  LDAOpt          .... VWN-5
 Gradients option       PostSCFGGA      .... off
 Hybrid DFT is turned on
   Fraction HF Exchange ScalHFX         ....  0.200000
   Scaling of DF-GGA-X  ScalDFX         ....  0.720000
   Scaling of DF-GGA-C  ScalDFC         ....  0.810000
   Scaling of DF-LDA-C  ScalLDAC        ....  1.000000
   Perturbative correction              ....  0.000000
   Density functional embedding theory  .... OFF
   NL short-range parameter             ....  4.800000
 RI-approximation to the Coulomb term is turned on
   Number of AuxJ basis functions       .... 796
   RIJ-COSX (HFX calculated with COS-X)).... on


General Settings:
 Integral files         IntName         .... E_azobenzene
 Hartree-Fock type      HFTyp           .... RHF
 Total Charge           Charge          ....    0
 Multiplicity           Mult            ....    1
 Number of Electrons    NEL             ....   96
 Basis Dimension        Dim             ....  246
 Nuclear Repulsion      ENuc            ....    744.0380339199 Eh

Convergence Acceleration:
 DIIS                   CNVDIIS         .... on
   Start iteration      DIISMaxIt       ....    12
   Startup error        DIISStart       ....  0.200000
   # of expansion vecs  DIISMaxEq       ....     5
   Bias factor          DIISBfac        ....   1.050
   Max. coefficient     DIISMaxC        ....  10.000
 Trust-Rad. Augm. Hess. CNVTRAH         .... auto
   Auto Start mean grad. ratio tolernc. ....  1.125000
   Auto Start start iteration           ....    20
   Auto Start num. interpolation iter.  ....    10
   Max. Number of Micro iterations      ....    16
   Max. Number of Macro iterations      .... Maxiter - #DIIS iter
   Number of Davidson start vectors     ....     2
   Converg. threshold I  (grad. norm)   ....   5.000e-05
   Converg. threshold II (energy diff.) ....   1.000e-06
   Grad. Scal. Fac. for Micro threshold ....   0.100
   Minimum threshold for Micro iter.    ....   0.010
   NR start threshold (gradient norm)   ....   0.001
   Initial trust radius                 ....   0.400
   Minimum AH scaling param. (alpha)    ....   1.000
   Maximum AH scaling param. (alpha)    .... 1000.000
   Orbital update algorithm             .... Taylor
   White noise on init. David. guess    .... on
   Maximum white noise                  ....   0.010
   Quad. conv. algorithm                .... NR
 SOSCF                  CNVSOSCF        .... on
   Start iteration      SOSCFMaxIt      ....   150
   Startup grad/error   SOSCFStart      ....  0.003300
 Level Shifting         CNVShift        .... on
   Level shift para.    LevelShift      ....    0.2500
   Turn off err/grad.   ShiftErr        ....    0.0010
 Zerner damping         CNVZerner       .... off
 Static damping         CNVDamp         .... on
   Fraction old density DampFac         ....    0.7000
   Max. Damping (<1)    DampMax         ....    0.9800
   Min. Damping (>=0)   DampMin         ....    0.0000
   Turn off err/grad.   DampErr         ....    0.1000
 Fernandez-Rico         CNVRico         .... off

SCF Procedure:
 Maximum # iterations   MaxIter         ....   125
 SCF integral mode      SCFMode         .... Direct
   Integral package                     .... SHARK and LIBINT hybrid scheme
 Reset frequency        DirectResetFreq ....    20
 Integral Threshold     Thresh          ....  1.000e-10 Eh
 Primitive CutOff       TCut            ....  1.000e-11 Eh

Convergence Tolerance:
 Convergence Check Mode ConvCheckMode   .... Total+1el-Energy
 Convergence forced     ConvForced      .... 1
 Energy Change          TolE            ....  1.000e-06 Eh
 1-El. energy change                    ....  1.000e-03 Eh
 Orbital Gradient       TolG            ....  5.000e-05
 Orbital Rotation angle TolX            ....  5.000e-05
 DIIS Error             TolErr          ....  1.000e-06


Diagonalization of the overlap matrix:
Smallest eigenvalue                        ... 2.880e-04
Time for diagonalization                   ...    0.157 sec
Threshold for overlap eigenvalues          ... 1.000e-08
Number of eigenvalues below threshold      ... 0
Time for construction of square roots      ...    0.060 sec
Total time needed                          ...    0.217 sec

SHARK General Contraction Test:  Segmented basis detected
   -> Pre-screening matrix found on disk - Trying to read with NShells=114
   -> Passing Pre-screening matrix on to SHARK ...ok
   -> Leaving CheckPreScreeningMatrix
----------------------
SHARK INTEGRAL PACKAGE
----------------------

Number of atoms                             ...     24
Number of basis functions                   ...    246
Number of shells                            ...    114
Maximum angular momentum                    ...      2
Integral batch strategy                     ... SHARK/LIBINT Hybrid
RI-J (if used) integral strategy            ... SPLIT-RIJ (Revised 2003 algorithm where possible)
Printlevel                                  ...      2
Contraction scheme used                     ... SEGMENTED contraction
Coulomb Range Separation                    ... NOT USED
Exchange Range Separation                   ... NOT USED
Finite Nucleus Model                        ... NOT USED
Auxiliary Coulomb fitting basis             ... AVAILABLE
   # of basis functions in Aux-J            ...    796
   # of shells in Aux-J                     ...    260
   Maximum angular momentum in Aux-J        ...      4
Auxiliary J/K fitting basis                 ... NOT available
Auxiliary Correlation fitting basis         ... NOT available
Auxiliary 'external' fitting basis          ... NOT available
Integral threshold                          ...     1.000000e-10
Primitive cut-off                           ...     1.000000e-11
Primitive pair pre-selection threshold      ...     1.000000e-11

Time for model grid setup =    0.388 sec

------------------------------
INITIAL GUESS: MODEL POTENTIAL
------------------------------
Loading Hartree-Fock densities                     ... done
Calculating cut-offs                               ... done
Initializing the effective Hamiltonian             ... done
Setting up the integral package (SHARK)            ... done
Starting the Coulomb interaction                   ...     -> Generating integrals - 
    -> L=0 0 :     0.059 sec done=    285500 skipped=     11634 prim-skipped=         0
    -> L=1 0 :     0.092 sec done=    349224 skipped=     10236 prim-skipped=         0
    -> L=1 1 :     0.041 sec done=    112686 skipped=      2834 prim-skipped=         0
    -> L=2 0 :     0.034 sec done=    119944 skipped=      4312 prim-skipped=         0
    -> L=2 1 :     0.035 sec done=     74352 skipped=      1368 prim-skipped=         0
    -> L=2 2 :     0.008 sec done=     13304 skipped=       304 prim-skipped=         0
done (   0.3 sec)
Reading the grid                                   ... done
Mapping shells                                     ... done
Starting the XC term evaluation                    ... done (   0.3 sec)
  promolecular density results
     # of electrons  =     95.995510657
     EX              =    -77.755594565
     EC              =     -3.227625315
     EX+EC           =    -80.983219880
Transforming the Hamiltonian                       ... done (   0.0 sec)
Diagonalizing the Hamiltonian                      ... done (   0.0 sec)
Back transforming the eigenvectors                 ... done (   0.0 sec)
Now organizing SCF variables                       ... done
                      ------------------
                      INITIAL GUESS DONE (   1.0 sec)
                      ------------------
----------------------
INITIAL GUESS ORBITALS
----------------------
                      0         1         2         3         4         5   
                 -14.19819 -14.19812 -10.10075 -10.10075 -10.10054 -10.10054
                   2.00000   2.00000   2.00000   2.00000   2.00000   2.00000
                  --------  --------  --------  --------  --------  --------
  0C   1s        -0.000019  0.000024  0.219829  0.228887 -0.360437 -0.375397
  0C   2s         0.000785 -0.000446  0.008861  0.009144 -0.018395 -0.019199
  0C   3s        -0.005961  0.001064  0.003970  0.004521  0.008216  0.008822
  0C   1pz       -0.000115  0.000034  0.001392  0.001487 -0.000283 -0.000295
  0C   1px        0.000105 -0.000123  0.000497  0.000531 -0.000163 -0.000182
  0C   1py        0.000028 -0.000012 -0.000277 -0.000296  0.000054  0.000056
  0C   2pz        0.003586 -0.004242  0.002747  0.002412 -0.001661 -0.001307
  0C   2px       -0.002196 -0.001112  0.003533  0.003654  0.003842  0.004491
  0C   2py       -0.000842  0.000861 -0.000455 -0.000379  0.000493  0.000442
  0C   1dz2      -0.000040  0.000018 -0.000635 -0.000682 -0.000188 -0.000194
  0C   1dxz      -0.000082  0.000011 -0.000565 -0.000603  0.000219  0.000228
  0C   1dyz       0.000051 -0.000013  0.000159  0.000176  0.000221  0.000229
  0C   1dx2y2    -0.000172  0.000030  0.000285  0.000284 -0.000631 -0.000652
  0C   1dxy       0.000004 -0.000000  0.000139  0.000147 -0.000094 -0.000097
  1C   1s        -0.000022  0.000014  0.590593  0.626033 -0.110458 -0.113451
  1C   2s         0.000206 -0.000171  0.028565  0.030266 -0.006563 -0.006761
  1C   3s         0.006058 -0.004390 -0.013633 -0.015245  0.007333  0.007476
  1C   1pz        0.000039  0.000026 -0.000057 -0.000057  0.001989  0.002069
  1C   1px        0.000102 -0.000076 -0.000556 -0.000588 -0.000714 -0.000747
  1C   1py       -0.000005 -0.000008 -0.000008 -0.000009 -0.000449 -0.000467
  1C   2pz        0.001716 -0.002902 -0.000420 -0.000458  0.002415  0.003013
  1C   2px        0.002377 -0.001137 -0.003598 -0.003920  0.000593  0.000424
  1C   2py       -0.000278  0.000575 -0.000042 -0.000046 -0.000491 -0.000624
  1C   1dz2      -0.000026  0.000017 -0.000022 -0.000023  0.000146  0.000156
  1C   1dxz       0.000016  0.000006  0.000332  0.000355  0.001070  0.001114
  1C   1dyz       0.000009 -0.000007 -0.000230 -0.000243  0.000138  0.000142
  1C   1dx2y2     0.000006  0.000003  0.001127  0.001192 -0.000682 -0.000708
  1C   1dxy      -0.000003 -0.000001  0.000013  0.000013 -0.000278 -0.000290
  2C   1s        -0.000016  0.000002  0.252208  0.266485  0.565020  0.588709
  2C   2s         0.000578 -0.000357  0.010460  0.011054  0.029534  0.030711
  2C   3s        -0.004185  0.005864  0.003219  0.003091 -0.020176 -0.021227
  2C   1pz        0.000117 -0.000068 -0.001029 -0.001096  0.000157  0.000151
  2C   1px        0.000137 -0.000020  0.001057  0.001125 -0.000338 -0.000352
  2C   1py       -0.000020  0.000014  0.000257  0.000274 -0.000045 -0.000044
  2C   2pz       -0.002701  0.001887 -0.000755 -0.000625 -0.004250 -0.004164
  2C   2px       -0.001937  0.004052  0.003606  0.003273 -0.003024 -0.003765
  2C   2py        0.000503 -0.000253  0.000292  0.000252  0.000792  0.000747
  2C   1dz2      -0.000035  0.000007  0.000043  0.000046  0.000924  0.000964
  2C   1dxz       0.000030 -0.000010  0.000902  0.000953 -0.000033 -0.000030
  2C   1dyz       0.000044 -0.000030  0.000029  0.000035 -0.000593 -0.000619
  2C   1dx2y2    -0.000133  0.000121 -0.000045 -0.000069  0.001050  0.001099
  2C   1dxy      -0.000016  0.000011 -0.000195 -0.000208  0.000088  0.000091
  3C   1s         0.000063 -0.000013  0.016233  0.017641  0.077004  0.079188
  3C   2s        -0.000873  0.000364 -0.000867 -0.000770  0.002208  0.002265
  3C   3s         0.000311 -0.006326 -0.002565 -0.002723  0.014170  0.014458
  3C   1pz       -0.000088 -0.000128 -0.000047 -0.000015  0.000597  0.000617
  3C   1px        0.000028 -0.000248  0.000511  0.000583  0.001418  0.001488
  3C   1py        0.000020  0.000018  0.000029  0.000024 -0.000075 -0.000077
  3C   2pz       -0.002323  0.001343  0.003625  0.003113  0.002850  0.002478
  3C   2px        0.000085  0.003144  0.003736  0.003564  0.002398  0.001494
  3C   2py        0.000496 -0.000171 -0.000634 -0.000532 -0.000518 -0.000472
  3C   1dz2      -0.000055  0.000046  0.000198  0.000180  0.000411  0.000421
  3C   1dxz       0.000310 -0.000270 -0.000212 -0.000216 -0.000285 -0.000316
  3C   1dyz       0.000048 -0.000032 -0.000021 -0.000009  0.000011  0.000016
  3C   1dx2y2    -0.000063  0.000017 -0.000286 -0.000309 -0.000811 -0.000857
  3C   1dxy      -0.000071  0.000059  0.000024  0.000023  0.000001  0.000004
  4C   1s        -0.000181  0.000192 -0.001304 -0.002174  0.000639  0.001080
  4C   2s         0.000313 -0.000146 -0.001104 -0.001544 -0.000265 -0.000106
  4C   3s        -0.017110  0.015631 -0.007171 -0.005375  0.001121  0.001883
  4C   1pz        0.000471  0.000037  0.000048  0.000062 -0.000230 -0.000176
  4C   1px        0.001071 -0.000991  0.000327  0.000244  0.000075  0.000124
  4C   1py       -0.000061 -0.000044  0.000002 -0.000004  0.000052  0.000042
  4C   2pz       -0.009435  0.004985 -0.001997 -0.001372  0.010599  0.010181
  4C   2px       -0.012627  0.005831 -0.003026 -0.004549 -0.003848 -0.002661
  4C   2py        0.001545 -0.000846  0.000314  0.000126 -0.002392 -0.002260
  4C   1dz2      -0.000643  0.000680 -0.000080 -0.000036 -0.000100 -0.000118
  4C   1dxz       0.000215 -0.000184 -0.000041  0.000002 -0.000165 -0.000108
  4C   1dyz       0.000120 -0.000053  0.000007  0.000000  0.000023  0.000027
  4C   1dx2y2     0.000610 -0.000967  0.000097  0.000061  0.000038  0.000062
  4C   1dxy      -0.000002 -0.000031  0.000016  0.000004  0.000038  0.000027
  5C   1s         0.000012 -0.000048  0.006634  0.007245 -0.028387 -0.027783
  5C   2s        -0.000381  0.000472 -0.001179 -0.001162 -0.000698 -0.000547
  5C   3s         0.009403 -0.002927 -0.001549 -0.003447 -0.013171 -0.013613
  5C   1pz        0.000019 -0.000042  0.000258  0.000259  0.000004 -0.000004
  5C   1px        0.000234  0.000231  0.000344  0.000388 -0.000900 -0.000939
  5C   1py        0.000005  0.000017 -0.000042 -0.000041 -0.000034 -0.000033
  5C   2pz       -0.000368  0.002508 -0.002228 -0.001377  0.002854  0.002336
  5C   2px        0.003345 -0.005931  0.005985  0.005453 -0.004587 -0.004056
  5C   2py        0.000199 -0.000749  0.000692  0.000492 -0.000774 -0.000644
  5C   1dz2      -0.000439  0.000259  0.000191  0.000189 -0.000191 -0.000194
  5C   1dxz      -0.000131  0.000234 -0.000106 -0.000105  0.000303  0.000295
  5C   1dyz       0.000116 -0.000085 -0.000014 -0.000011 -0.000024 -0.000028
  5C   1dx2y2     0.000216 -0.000024 -0.000285 -0.000298  0.000491  0.000515
  5C   1dxy       0.000043 -0.000051  0.000002  0.000001 -0.000028 -0.000025
  6H   1s        -0.000055  0.000144  0.000211  0.000204  0.000369  0.000400
  6H   2s        -0.001992 -0.001633  0.000577  0.000470  0.000802  0.001199
  6H   1pz       -0.000074  0.000270  0.000039  0.000034 -0.000037 -0.000049
  6H   1px       -0.000022  0.000164 -0.000367 -0.000336  0.000355  0.000339
  6H   1py        0.000015 -0.000051 -0.000022 -0.000020  0.000021  0.000023
  7H   1s        -0.000427  0.000302 -0.001297 -0.001315  0.002631  0.002738
  7H   2s        -0.000902  0.000994  0.000428  0.000489 -0.001125 -0.001205
  7H   1pz        0.000024  0.000048  0.000064  0.000072 -0.000825 -0.000876
  7H   1px        0.000009  0.000098 -0.000668 -0.000693  0.000676  0.000686
  7H   1py       -0.000005 -0.000007 -0.000038 -0.000041  0.000200  0.000211
  8H   1s         0.000140 -0.000076 -0.003693 -0.003898  0.000680  0.000694
  8H   2s         0.000045 -0.000014  0.002700  0.002894 -0.000962 -0.000994
  8H   1pz       -0.000066  0.000089 -0.000433 -0.000460 -0.000371 -0.000404
  8H   1px       -0.000059  0.000018 -0.001704 -0.001812  0.000545  0.000570
  8H   1py        0.000012 -0.000018  0.000030  0.000032  0.000099  0.000107
  9H   1s        -0.000349  0.000226 -0.001505 -0.001569 -0.003697 -0.003829
  9H   2s        -0.000870  0.000450  0.000620  0.000677  0.002974  0.003151
  9H   1pz       -0.000047  0.000045 -0.000459 -0.000494 -0.001789 -0.001870
  9H   1px        0.000058 -0.000154 -0.000569 -0.000577 -0.000354 -0.000350
  9H   1py        0.000012 -0.000015  0.000077  0.000084  0.000367  0.000384
 10H   1s        -0.000116 -0.000258  0.000125  0.000146 -0.000762 -0.000726
 10H   2s        -0.000943  0.000902  0.000405  0.000288 -0.001317 -0.001211
 10H   1pz        0.000128 -0.000155 -0.000241 -0.000209 -0.000238 -0.000227
 10H   1px        0.000024 -0.000157 -0.000291 -0.000259 -0.000236 -0.000223
 10H   1py       -0.000026  0.000027  0.000041  0.000035  0.000042  0.000040
 11N   1s         0.702970 -0.694558 -0.000012 -0.000013  0.000018  0.000021
 11N   2s        -0.032289  0.033367 -0.000488 -0.000330  0.000262  0.000287
 11N   3s         0.029603 -0.033808  0.008426  0.004215  0.000854 -0.003409
 11N   1pz        0.000160 -0.002880  0.000057  0.000088 -0.000127 -0.000006
 11N   1px       -0.001358  0.000343  0.000078 -0.000056 -0.000039  0.000035
 11N   1py       -0.000084  0.000626 -0.000009 -0.000021  0.000026  0.000003
 11N   2pz        0.001355 -0.003492  0.002992  0.000153 -0.001552 -0.002853
 11N   2px       -0.009354  0.003725  0.000153 -0.001951 -0.000339 -0.000079
 11N   2py       -0.000630  0.000879 -0.000631 -0.000104  0.000318  0.000604
 11N   1dz2       0.000840  0.001875  0.000140 -0.000020  0.000003 -0.000043
 11N   1dxz      -0.000159  0.001359  0.000118 -0.000013  0.000120  0.000083
 11N   1dyz      -0.000354 -0.000747 -0.000055  0.000008  0.000017  0.000036
 11N   1dx2y2     0.000104  0.000344  0.000024 -0.000005 -0.000058 -0.000071
 11N   1dxy       0.000044 -0.000259 -0.000023  0.000002 -0.000030 -0.000023
 12N   1s         0.695093  0.702441  0.000013 -0.000012  0.000018 -0.000020
 12N   2s        -0.031910 -0.033729  0.000505 -0.000302  0.000271 -0.000274
 12N   3s         0.029219  0.034139 -0.008646  0.003727  0.000758  0.003423
 12N   1pz       -0.000127 -0.002882  0.000062 -0.000084  0.000127 -0.000001
 12N   1px        0.001354  0.000358  0.000075  0.000060  0.000037  0.000037
 12N   1py        0.000077  0.000627 -0.000011  0.000020 -0.000026  0.000002
 12N   2pz       -0.001315 -0.003507  0.002993  0.000019  0.001650 -0.002785
 12N   2px        0.009311  0.003830  0.000045  0.001956  0.000345 -0.000073
 12N   2py        0.000622  0.000889 -0.000637  0.000067 -0.000340  0.000592
 12N   1dz2       0.000861 -0.001865 -0.000138 -0.000028  0.000002  0.000043
 12N   1dxz      -0.000143 -0.001361 -0.000117 -0.000019  0.000123 -0.000078
 12N   1dyz      -0.000363  0.000743  0.000054  0.000012  0.000018 -0.000035
 12N   1dx2y2     0.000108 -0.000343 -0.000023 -0.000006 -0.000060  0.000069
 12N   1dxy       0.000042  0.000259  0.000023  0.000004 -0.000031  0.000022
 13C   1s        -0.000179 -0.000194  0.001424 -0.002098  0.000695 -0.001064
 13C   2s         0.000311  0.000149  0.001189 -0.001480 -0.000270  0.000097
 13C   3s        -0.016933 -0.015823  0.007458 -0.004962  0.001196 -0.001839
 13C   1pz       -0.000472  0.000031  0.000051 -0.000059  0.000236 -0.000165
 13C   1px       -0.001060 -0.001003  0.000340 -0.000225 -0.000081  0.000121
 13C   1py        0.000062 -0.000043  0.000001  0.000004 -0.000053  0.000040
 13C   2pz        0.009378  0.005090 -0.002054  0.001243 -0.010965  0.009713
 13C   2px        0.012560  0.005974 -0.003277  0.004372  0.003976 -0.002527
 13C   2py       -0.001539 -0.000868  0.000318 -0.000104  0.002488 -0.002167
 13C   1dz2      -0.000635 -0.000687  0.000082 -0.000032 -0.000104  0.000113
 13C   1dxz       0.000213  0.000186  0.000041  0.000004 -0.000169  0.000101
 13C   1dyz       0.000120  0.000055 -0.000008 -0.000000  0.000024 -0.000026
 13C   1dx2y2     0.000599  0.000974 -0.000100  0.000056  0.000042 -0.000061
 13C   1dxy      -0.000002  0.000032 -0.000016  0.000003  0.000039 -0.000026
 14C   1s         0.000063  0.000014 -0.017279  0.016786  0.080259 -0.076147
 14C   2s        -0.000869 -0.000374  0.000904 -0.000716  0.002291 -0.002168
 14C   3s         0.000240  0.006330  0.002697 -0.002560  0.014738 -0.013874
 14C   1pz        0.000089 -0.000127 -0.000048  0.000012 -0.000623  0.000594
 14C   1px       -0.000025 -0.000248  0.000543 -0.000554 -0.001483  0.001436
 14C   1py       -0.000020  0.000018  0.000030 -0.000023  0.000078 -0.000074
 14C   2pz        0.002307  0.001370  0.003798 -0.002909 -0.002927  0.002341
 14C   2px       -0.000120  0.003142  0.003933 -0.003350 -0.002456  0.001393
 14C   2py       -0.000497 -0.000176 -0.000667  0.000498  0.000535 -0.000449
 14C   1dz2      -0.000055 -0.000046 -0.000208  0.000169  0.000429 -0.000406
 14C   1dxz       0.000307  0.000274  0.000224 -0.000204 -0.000298  0.000306
 14C   1dyz       0.000048  0.000033  0.000021 -0.000008  0.000012 -0.000016
 14C   1dx2y2    -0.000062 -0.000018  0.000304 -0.000293 -0.000849  0.000828
 14C   1dxy      -0.000071 -0.000060 -0.000026  0.000022  0.000001 -0.000004
 15C   1s        -0.000016 -0.000002 -0.267088  0.252299  0.590409 -0.567536
 15C   2s         0.000574  0.000363 -0.011080  0.010468  0.030869 -0.029614
 15C   3s        -0.004119 -0.005911 -0.003381  0.002899 -0.021159  0.020540
 15C   1pz       -0.000117 -0.000070 -0.001089  0.001036 -0.000168  0.000150
 15C   1px       -0.000137 -0.000021  0.001118 -0.001064  0.000360 -0.000346
 15C   1py        0.000020  0.000014  0.000274 -0.000261  0.000049 -0.000044
 15C   2pz        0.002679  0.001917 -0.000792  0.000584  0.004423 -0.003998
 15C   2px        0.001891  0.004074  0.003778 -0.003060  0.003160 -0.003629
 15C   2py       -0.000502 -0.000260  0.000308 -0.000237 -0.000828  0.000720
 15C   1dz2      -0.000035 -0.000007 -0.000046  0.000044  0.000967 -0.000931
 15C   1dxz       0.000030  0.000010 -0.000954  0.000902 -0.000038  0.000033
 15C   1dyz       0.000044  0.000031 -0.000031  0.000034 -0.000625  0.000602
 15C   1dx2y2    -0.000131 -0.000123  0.000049 -0.000066  0.001101 -0.001063
 15C   1dxy      -0.000016 -0.000011  0.000208 -0.000198  0.000094 -0.000090
 16C   1s        -0.000022 -0.000014 -0.624886  0.592192 -0.118386  0.112219
 16C   2s         0.000204  0.000173 -0.030226  0.028632 -0.007035  0.006687
 16C   3s         0.006009  0.004458  0.014482 -0.014475  0.007866 -0.007405
 16C   1pz       -0.000040  0.000026 -0.000057  0.000051 -0.002063  0.001980
 16C   1px       -0.000101 -0.000077 -0.000588  0.000556  0.000749 -0.000724
 16C   1py        0.000005 -0.000008 -0.000009  0.000009  0.000468 -0.000450
 16C   2pz       -0.001683 -0.002920 -0.000443  0.000431 -0.002535  0.002915
 16C   2px       -0.002364 -0.001164 -0.003814  0.003715 -0.000640  0.000430
 16C   2py        0.000272  0.000581 -0.000046  0.000045  0.000518 -0.000606
 16C   1dz2      -0.000026 -0.000017  0.000022 -0.000021  0.000142 -0.000139
 16C   1dxz       0.000016 -0.000006 -0.000353  0.000337  0.001112 -0.001068
 16C   1dyz       0.000009  0.000007  0.000245 -0.000232  0.000152 -0.000144
 16C   1dx2y2     0.000006 -0.000003 -0.001192  0.001128 -0.000723  0.000692
 16C   1dxy      -0.000003  0.000001 -0.000014  0.000013 -0.000292  0.000281
 17C   1s        -0.000019 -0.000024 -0.231342  0.215329 -0.370825  0.356242
 17C   2s         0.000780  0.000455 -0.009308  0.008587 -0.018912  0.018206
 17C   3s        -0.005949 -0.001131 -0.004251  0.004324  0.008344 -0.008268
 17C   1pz        0.000115  0.000036  0.001473 -0.001407  0.000303 -0.000292
 17C   1px       -0.000104 -0.000124  0.000527 -0.000502  0.000175 -0.000180
 17C   1py       -0.000028 -0.000012 -0.000295  0.000282 -0.000058  0.000055
 17C   2pz       -0.003537 -0.004281  0.002873 -0.002250  0.001688 -0.001215
 17C   2px        0.002208 -0.001087  0.003737 -0.003456 -0.004005  0.004318
 17C   2py        0.000837  0.000874 -0.000476  0.000353 -0.000508  0.000419
 17C   1dz2      -0.000040 -0.000018  0.000673 -0.000647 -0.000184  0.000175
 17C   1dxz      -0.000082 -0.000012  0.000597 -0.000570  0.000228 -0.000218
 17C   1dyz       0.000051  0.000014 -0.000170  0.000168  0.000225 -0.000214
 17C   1dx2y2    -0.000172 -0.000032 -0.000299  0.000266 -0.000646  0.000615
 17C   1dxy       0.000004  0.000000 -0.000148  0.000140 -0.000098  0.000093
 18C   1s         0.000011  0.000049 -0.006979  0.006818 -0.029321  0.026451
 18C   2s        -0.000375 -0.000477  0.001241 -0.001094 -0.000731  0.000529
 18C   3s         0.009370  0.003033  0.001762 -0.003377 -0.013636  0.013004
 18C   1pz       -0.000019 -0.000042  0.000272 -0.000244 -0.000005 -0.000002
 18C   1px       -0.000237  0.000229  0.000363 -0.000366  0.000924 -0.000890
 18C   1py       -0.000005  0.000018 -0.000045  0.000039  0.000035 -0.000032
 18C   2pz        0.000339  0.002511 -0.002298  0.001248 -0.002951  0.002223
 18C   2px       -0.003278 -0.005968  0.006274 -0.005104  0.004740 -0.003863
 18C   2py       -0.000194 -0.000756  0.000722 -0.000455  0.000805 -0.000617
 18C   1dz2      -0.000436 -0.000264 -0.000201  0.000177 -0.000197  0.000184
 18C   1dxz      -0.000129 -0.000236  0.000111 -0.000098  0.000311 -0.000279
 18C   1dyz       0.000115  0.000087  0.000015 -0.000010 -0.000024  0.000027
 18C   1dx2y2     0.000216  0.000026  0.000300 -0.000280  0.000504 -0.000488
 18C   1dxy       0.000043  0.000052 -0.000002  0.000000 -0.000029  0.000023
 19H   1s        -0.000054 -0.000144 -0.000223  0.000193  0.000381 -0.000382
 19H   2s        -0.002010  0.001610 -0.000604  0.000439  0.000839 -0.001157
 19H   1pz        0.000071  0.000271  0.000041 -0.000032  0.000040 -0.000048
 19H   1px        0.000021  0.000164 -0.000384  0.000315 -0.000366  0.000322
 19H   1py       -0.000014 -0.000052 -0.000023  0.000018 -0.000022  0.000022
 20H   1s        -0.000119  0.000257 -0.000132  0.000138 -0.000794  0.000697
 20H   2s        -0.000933 -0.000913 -0.000419  0.000264 -0.001369  0.001161
 20H   1pz       -0.000126 -0.000156 -0.000252  0.000196  0.000247 -0.000216
 20H   1px       -0.000023 -0.000158 -0.000305  0.000242  0.000245 -0.000214
 20H   1py        0.000026  0.000027  0.000043 -0.000033 -0.000044  0.000038
 21H   1s        -0.000346 -0.000230  0.001594 -0.001485 -0.003858  0.003687
 21H   2s        -0.000865 -0.000459 -0.000657  0.000642  0.003122 -0.003052
 21H   1pz        0.000047  0.000045 -0.000487  0.000469  0.001871 -0.001805
 21H   1px       -0.000056 -0.000154 -0.000600  0.000544  0.000370 -0.000337
 21H   1py       -0.000012 -0.000015  0.000082 -0.000080 -0.000386  0.000373
 22H   1s         0.000139  0.000077  0.003906 -0.003686  0.000728 -0.000685
 22H   2s         0.000045  0.000014 -0.002860  0.002741 -0.001034  0.000986
 22H   1pz        0.000065  0.000089 -0.000459  0.000436  0.000382 -0.000385
 22H   1px        0.000058  0.000018 -0.001804  0.001714 -0.000581  0.000560
 22H   1py       -0.000012 -0.000018  0.000032 -0.000030 -0.000103  0.000103
 23H   1s        -0.000424 -0.000307  0.001363 -0.001235  0.002714 -0.002604
 23H   2s        -0.000890 -0.001004 -0.000450  0.000459 -0.001138  0.001125
 23H   1pz       -0.000025  0.000048  0.000065 -0.000066  0.000847 -0.000829
 23H   1px       -0.000010  0.000098 -0.000704  0.000652 -0.000693  0.000649
 23H   1py        0.000005 -0.000007 -0.000040  0.000038 -0.000206  0.000201
                      6         7         8         9        10        11   
                 -10.10048 -10.10048 -10.09984 -10.09984 -10.09894 -10.09893
                   2.00000   2.00000   2.00000   2.00000   2.00000   2.00000
                  --------  --------  --------  --------  --------  --------
  0C   1s         0.653016  0.416140  0.015804  0.043701 -0.033612 -0.030264
  0C   2s         0.035119  0.022340  0.000177  0.000771 -0.004657 -0.004339
  0C   3s        -0.030043 -0.019178 -0.002921 -0.010883  0.008702  0.007646
  0C   1pz       -0.000979 -0.000615  0.000092  0.000250 -0.000637 -0.000586
  0C   1px       -0.000523 -0.000335 -0.000107 -0.000239 -0.001898 -0.001774
  0C   1py        0.000190  0.000119 -0.000023 -0.000062  0.000066  0.000060
  0C   2pz        0.003756  0.002380 -0.000365 -0.002289 -0.000137 -0.001161
  0C   2px       -0.001464 -0.000945 -0.000204 -0.002983 -0.001408 -0.002452
  0C   2py       -0.000852 -0.000540  0.000070  0.000377 -0.000022  0.000157
  0C   1dz2       0.001479  0.000938  0.000027  0.000050  0.000383  0.000351
  0C   1dxz      -0.000073 -0.000051 -0.000023 -0.000077 -0.000445 -0.000421
  0C   1dyz      -0.000929 -0.000589 -0.000025 -0.000050  0.000136  0.000135
  0C   1dx2y2     0.001602  0.001016  0.000060  0.000125 -0.001349 -0.001286
  0C   1dxy       0.000138  0.000089  0.000009  0.000026 -0.000005 -0.000005
  1C   1s        -0.387563 -0.243665 -0.000351 -0.000586 -0.001567 -0.001357
  1C   2s        -0.023966 -0.015112 -0.000149 -0.000414 -0.000461 -0.000410
  1C   3s         0.031124  0.019659 -0.001331 -0.002626 -0.001614 -0.000713
  1C   1pz       -0.000942 -0.000603 -0.000235 -0.000621  0.000330  0.000300
  1C   1px       -0.000898 -0.000573  0.000023  0.000061 -0.000176 -0.000152
  1C   1py        0.000167  0.000107  0.000051  0.000134 -0.000077 -0.000069
  1C   2pz        0.000135  0.000170  0.001756  0.003154 -0.001516 -0.002665
  1C   2px        0.003618  0.002295  0.000499  0.002368  0.002675  0.003189
  1C   2py        0.000104  0.000048 -0.000355 -0.000583  0.000420  0.000683
  1C   1dz2      -0.001508 -0.000961 -0.000005 -0.000011  0.000114  0.000096
  1C   1dxz      -0.000173 -0.000109 -0.000084 -0.000226  0.000143  0.000132
  1C   1dyz       0.000932  0.000593 -0.000025 -0.000073 -0.000069 -0.000060
  1C   1dx2y2    -0.001603 -0.001015  0.000106  0.000304  0.000139  0.000128
  1C   1dxy      -0.000087 -0.000055  0.000026  0.000071 -0.000020 -0.000018
  2C   1s         0.341683  0.217823 -0.034026 -0.095932  0.014101  0.013029
  2C   2s         0.018933  0.012048 -0.003182 -0.008729 -0.000488 -0.000313
  2C   3s        -0.019959 -0.013067  0.004490  0.013390 -0.006764 -0.007948
  2C   1pz        0.000649  0.000405 -0.000143 -0.000370 -0.000262 -0.000220
  2C   1px       -0.000933 -0.000591 -0.000933 -0.002521 -0.000063 -0.000057
  2C   1py       -0.000172 -0.000107 -0.000004 -0.000013  0.000053  0.000045
  2C   2pz       -0.001474 -0.000963  0.000306  0.000083  0.001192 -0.000318
  2C   2px        0.002410  0.001226 -0.001472 -0.001591 -0.001983 -0.001064
  2C   2py        0.000401  0.000249 -0.000119 -0.000076 -0.000326  0.000029
  2C   1dz2       0.000919  0.000585  0.000138  0.000353  0.000064  0.000052
  2C   1dxz      -0.000445 -0.000282 -0.000258 -0.000702  0.000058  0.000037
  2C   1dyz      -0.000623 -0.000394  0.000084  0.000241 -0.000041 -0.000032
  2C   1dx2y2     0.001121  0.000704 -0.000662 -0.001815  0.000083  0.000061
  2C   1dxy       0.000181  0.000114  0.000006  0.000015 -0.000006 -0.000003
  3C   1s         0.004321  0.003274  0.336306  0.921521 -0.002419 -0.007993
  3C   2s        -0.001921 -0.001140  0.017627  0.048103 -0.000582 -0.000680
  3C   3s        -0.000380 -0.000031 -0.007858 -0.022458 -0.005601 -0.001845
  3C   1pz        0.000185  0.000125  0.000005 -0.000023  0.000001  0.000033
  3C   1px        0.000960  0.000634  0.000038 -0.000002  0.000156  0.000210
  3C   1py       -0.000004 -0.000004  0.000000  0.000004  0.000005  0.000001
  3C   2pz       -0.002236 -0.001533  0.000057  0.001246 -0.004215 -0.001452
  3C   2px        0.000455 -0.000159 -0.000320  0.002520 -0.008531 -0.007277
  3C   2py        0.000492  0.000320 -0.000024 -0.000172  0.000585  0.000044
  3C   1dz2       0.000194  0.000113  0.000387  0.001101  0.000086  0.000084
  3C   1dxz      -0.000204 -0.000128 -0.000139 -0.000358 -0.000251 -0.000145
  3C   1dyz       0.000067  0.000048 -0.000338 -0.000948 -0.000043 -0.000035
  3C   1dx2y2    -0.000670 -0.000433  0.000826  0.002290  0.000001 -0.000015
  3C   1dxy      -0.000006 -0.000005  0.000092  0.000249  0.000054  0.000030
  4C   1s         0.001319  0.000622  0.004326  0.010619  0.010827  0.006967
  4C   2s        -0.000246 -0.000263 -0.000778 -0.002412 -0.000721 -0.001772
  4C   3s        -0.001374 -0.000263  0.006592  0.015122  0.012278  0.009435
  4C   1pz        0.000096  0.000082  0.000758  0.001961 -0.000921 -0.001066
  4C   1px        0.000070  0.000013  0.000311  0.000673  0.001425  0.001004
  4C   1py       -0.000018 -0.000017 -0.000150 -0.000392  0.000248  0.000263
  4C   2pz       -0.005078 -0.002929  0.004836  0.013577 -0.009628 -0.004781
  4C   2px       -0.004079 -0.002620  0.002701  0.003757  0.009543  0.006460
  4C   2py        0.000930  0.000527 -0.000929 -0.002749  0.002393  0.001251
  4C   1dz2       0.000019  0.000029 -0.000608 -0.001615 -0.000449 -0.000357
  4C   1dxz       0.000012  0.000044 -0.000201 -0.000836  0.001363  0.001259
  4C   1dyz      -0.000035 -0.000023  0.000226  0.000611  0.000333  0.000312
  4C   1dx2y2     0.000125  0.000062  0.000001 -0.000098 -0.000475 -0.000556
  4C   1dxy       0.000007 -0.000005  0.000041  0.000166 -0.000327 -0.000311
  5C   1s         0.022936  0.015491  0.007633  0.009195  0.716282  0.677872
  5C   2s        -0.001793 -0.001056  0.000331 -0.000069  0.037252  0.035093
  5C   3s         0.009843  0.005733 -0.003239 -0.004437 -0.014918 -0.015991
  5C   1pz        0.000295  0.000188  0.000029  0.000071  0.000099  0.000090
  5C   1px        0.001761  0.001137  0.000101  0.000370  0.000060  0.000062
  5C   1py        0.000002  0.000002 -0.000002 -0.000002 -0.000019 -0.000017
  5C   2pz        0.000542  0.000378 -0.000873 -0.000511 -0.001201  0.000317
  5C   2px        0.001929  0.000961 -0.003728 -0.012503  0.002708  0.000219
  5C   2py       -0.000044 -0.000045  0.000049 -0.000346  0.000355 -0.000058
  5C   1dz2       0.000313  0.000196  0.000114  0.000301  0.001122  0.001079
  5C   1dxz      -0.000523 -0.000338 -0.000020  0.000060  0.000240  0.000233
  5C   1dyz       0.000109  0.000070 -0.000035 -0.000092 -0.000775 -0.000734
  5C   1dx2y2    -0.001122 -0.000713 -0.000046 -0.000096  0.001573  0.001464
  5C   1dxy       0.000028  0.000019  0.000001 -0.000019  0.000070  0.000063
  6H   1s        -0.000493 -0.000301  0.000287  0.000811 -0.003913 -0.003725
  6H   2s        -0.001447 -0.000779  0.001553  0.001617  0.004743  0.004166
  6H   1pz       -0.000150 -0.000106 -0.000037  0.000035  0.002306  0.002185
  6H   1px       -0.000359 -0.000219  0.000111  0.000443  0.000586  0.000653
  6H   1py        0.000019  0.000015  0.000012  0.000009 -0.000468 -0.000440
  7H   1s        -0.003743 -0.002381  0.000071  0.000174  0.000006  0.000016
  7H   2s         0.004880  0.003096  0.000396  0.001332 -0.001479 -0.001343
  7H   1pz        0.001735  0.001105  0.000036  0.000160 -0.000056 -0.000014
  7H   1px       -0.001532 -0.000978 -0.000032  0.000002  0.000568  0.000571
  7H   1py       -0.000425 -0.000270 -0.000009 -0.000034  0.000033  0.000024
  8H   1s         0.002182  0.001377  0.000223  0.000656  0.000491  0.000479
  8H   2s        -0.004154 -0.002617  0.000457  0.001311  0.000954  0.000902
  8H   1pz        0.000545  0.000342 -0.000063 -0.000121  0.000091  0.000136
  8H   1px        0.001613  0.001016 -0.000016 -0.000070 -0.000077 -0.000094
  8H   1py       -0.000057 -0.000036  0.000013  0.000023 -0.000022 -0.000032
  9H   1s        -0.001626 -0.001034  0.000157  0.000386  0.000321  0.000206
  9H   2s         0.003457  0.002188 -0.000727 -0.002131  0.001099  0.000725
  9H   1pz       -0.001277 -0.000817  0.000187  0.000551 -0.000046 -0.000035
  9H   1px       -0.000383 -0.000234  0.000277  0.000672  0.000032 -0.000000
  9H   1py        0.000257  0.000165 -0.000030 -0.000092  0.000011  0.000007
 10H   1s        -0.000233 -0.000115 -0.001773 -0.005094  0.000668  0.000700
 10H   2s        -0.000679 -0.000313  0.002376  0.005950  0.001302  0.001860
 10H   1pz        0.000064  0.000065 -0.000784 -0.002243  0.000106  0.000160
 10H   1px       -0.000179 -0.000100  0.000804  0.002123  0.000287  0.000165
 10H   1py       -0.000020 -0.000017  0.000196  0.000554 -0.000012 -0.000028
 11N   1s        -0.000013 -0.000006 -0.000001  0.000122  0.000038  0.000063
 11N   2s        -0.000403 -0.000179  0.000299  0.001573  0.000421  0.000832
 11N   3s         0.006783  0.001354 -0.010092 -0.010625 -0.008659 -0.006977
 11N   1pz        0.000043  0.000058  0.000021 -0.000337  0.000397  0.000023
 11N   1px        0.000025 -0.000024  0.000254  0.000102  0.000433 -0.000048
 11N   1py       -0.000008 -0.000013  0.000005  0.000076 -0.000069 -0.000007
 11N   2pz        0.002250 -0.000169 -0.003837 -0.003969  0.003034  0.000673
 11N   2px       -0.000584 -0.001106  0.000891  0.002639  0.004896  0.000939
 11N   2py       -0.000500 -0.000004  0.000848  0.000941 -0.000466 -0.000108
 11N   1dz2       0.000095 -0.000030 -0.000017  0.000018  0.000088  0.000003
 11N   1dxz       0.000030 -0.000056 -0.000055  0.000152 -0.000123 -0.000258
 11N   1dyz      -0.000040  0.000007  0.000026  0.000029 -0.000050 -0.000012
 11N   1dx2y2     0.000020  0.000011 -0.000094 -0.000135  0.000052  0.000003
 11N   1dxy      -0.000005  0.000013  0.000005 -0.000042  0.000030  0.000055
 12N   1s         0.000009 -0.000011 -0.000093  0.000080  0.000034 -0.000065
 12N   2s         0.000290 -0.000336 -0.001396  0.000785  0.000374 -0.000854
 12N   3s        -0.005555  0.004142  0.014627  0.000879 -0.008260  0.007444
 12N   1pz        0.000016 -0.000072 -0.000244  0.000233 -0.000395  0.000045
 12N   1px        0.000033  0.000011  0.000242  0.000129 -0.000435 -0.000024
 12N   1py       -0.000002  0.000016  0.000061 -0.000045  0.000068 -0.000011
 12N   2pz        0.002116 -0.000831 -0.005506 -0.000379 -0.002992  0.000839
 12N   2px       -0.000058  0.001248  0.002592 -0.001018 -0.004837  0.001207
 12N   2py       -0.000453  0.000223  0.001271  0.000044  0.000461 -0.000135
 12N   1dz2      -0.000099  0.000014 -0.000003  0.000025  0.000087 -0.000008
 12N   1dxz      -0.000051 -0.000039 -0.000081  0.000140 -0.000109  0.000265
 12N   1dyz       0.000039 -0.000011 -0.000039 -0.000001 -0.000050  0.000015
 12N   1dx2y2    -0.000014  0.000019  0.000164 -0.000015  0.000052 -0.000006
 12N   1dxy       0.000009  0.000010  0.000030 -0.000031  0.000028 -0.000057
 13C   1s        -0.000924  0.001111 -0.010909  0.003529  0.010428 -0.007556
 13C   2s         0.000110 -0.000342  0.002346 -0.000958 -0.000622  0.001809
 13C   3s         0.001142 -0.000848 -0.015814  0.004696  0.011738 -0.010098
 13C   1pz        0.000054 -0.000117  0.001988 -0.000683  0.000861 -0.001115
 13C   1px        0.000057 -0.000041  0.000715 -0.000195 -0.001368  0.001081
 13C   1py       -0.000009  0.000023 -0.000398  0.000139 -0.000234  0.000278
 13C   2pz       -0.003424  0.004912  0.013496 -0.005043  0.009347 -0.005304
 13C   2px       -0.002556  0.004080  0.004614 -0.000353 -0.009172  0.006977
 13C   2py        0.000637 -0.000898 -0.002713  0.001064 -0.002333  0.001389
 13C   1dz2      -0.000006  0.000035  0.001626 -0.000575 -0.000428  0.000381
 13C   1dxz       0.000007  0.000046  0.000769 -0.000385  0.001291 -0.001332
 13C   1dyz       0.000022 -0.000036 -0.000616  0.000222  0.000317 -0.000332
 13C   1dx2y2    -0.000086  0.000109  0.000073 -0.000064 -0.000443  0.000581
 13C   1dxy      -0.000008 -0.000002 -0.000154  0.000076 -0.000311  0.000330
 14C   1s        -0.002001  0.003982 -0.921538  0.336205 -0.001967  0.008103
 14C   2s         0.001272 -0.001874 -0.048151  0.017495 -0.000544  0.000711
 14C   3s         0.000424 -0.000334  0.022244 -0.008453 -0.005491  0.002152
 14C   1pz        0.000110 -0.000186 -0.000014  0.000018  0.000001  0.000033
 14C   1px        0.000591 -0.000968  0.000023  0.000030 -0.000144  0.000218
 14C   1py       -0.000002  0.000004  0.000003 -0.000003 -0.000005  0.000001
 14C   2pz       -0.001391  0.002358  0.000989 -0.000759  0.004128 -0.001683
 14C   2px        0.000464 -0.000037  0.001721 -0.001868  0.008117 -0.007737
 14C   2py        0.000314 -0.000505 -0.000147  0.000093 -0.000583  0.000075
 14C   1dz2      -0.000125  0.000180 -0.001090  0.000412  0.000081 -0.000088
 14C   1dxz       0.000129 -0.000200  0.000363 -0.000124 -0.000243  0.000158
 14C   1dyz      -0.000040  0.000072  0.000948 -0.000353 -0.000042  0.000037
 14C   1dx2y2     0.000418 -0.000668 -0.002283  0.000843  0.000002  0.000015
 14C   1dxy       0.000004 -0.000007 -0.000252  0.000091  0.000052 -0.000033
 15C   1s        -0.213375  0.336780  0.095408 -0.035790  0.013353 -0.013780
 15C   2s        -0.011841  0.018656  0.008733 -0.003189 -0.000470  0.000340
 15C   3s         0.012389 -0.020092 -0.013139  0.005190 -0.006314  0.008308
 15C   1pz        0.000413 -0.000639 -0.000375  0.000129  0.000249 -0.000234
 15C   1px       -0.000590  0.000926 -0.002530  0.000910  0.000060 -0.000060
 15C   1py       -0.000110  0.000170 -0.000013  0.000006 -0.000051  0.000048
 15C   2pz       -0.000897  0.001457  0.000261  0.000181 -0.001207 -0.000252
 15C   2px        0.001682 -0.002173 -0.002164 -0.000101  0.001921 -0.001172
 15C   2py        0.000253 -0.000391 -0.000136 -0.000042  0.000329  0.000010
 15C   1dz2      -0.000577  0.000910 -0.000359  0.000122  0.000061 -0.000055
 15C   1dxz       0.000282 -0.000442  0.000703 -0.000255  0.000055 -0.000040
 15C   1dyz       0.000394 -0.000618 -0.000240  0.000091 -0.000039  0.000034
 15C   1dx2y2    -0.000708  0.001102  0.001815 -0.000663  0.000080 -0.000065
 15C   1dxy      -0.000116  0.000181 -0.000014  0.000005 -0.000006  0.000004
 16C   1s         0.246234 -0.383347  0.000678 -0.000110 -0.001489  0.001440
 16C   2s         0.015215 -0.023757  0.000413 -0.000152 -0.000438  0.000435
 16C   3s        -0.019771  0.030924  0.002866 -0.000673 -0.001572  0.000801
 16C   1pz       -0.000610  0.000966 -0.000627  0.000220 -0.000313  0.000318
 16C   1px       -0.000566  0.000894  0.000061 -0.000022  0.000167 -0.000162
 16C   1py        0.000109 -0.000173  0.000136 -0.000048  0.000073 -0.000074
 16C   2pz        0.000034 -0.000182  0.003543 -0.000687  0.001366 -0.002744
 16C   2px        0.002293 -0.003605  0.002133 -0.001144 -0.002495  0.003332
 16C   2py        0.000077 -0.000094 -0.000678  0.000105 -0.000384  0.000709
 16C   1dz2       0.000957 -0.001510  0.000012 -0.000003  0.000108 -0.000102
 16C   1dxz       0.000117 -0.000184  0.000227 -0.000081  0.000136 -0.000140
 16C   1dyz      -0.000594  0.000935  0.000072 -0.000028 -0.000066  0.000064
 16C   1dx2y2     0.001014 -0.001590 -0.000301  0.000115  0.000132 -0.000135
 16C   1dxy       0.000054 -0.000085 -0.000071  0.000026 -0.000019  0.000019
 17C   1s        -0.416972  0.658005 -0.043736  0.016101 -0.031893  0.032074
 17C   2s        -0.022433  0.035338 -0.000711  0.000363 -0.004411  0.004589
 17C   3s         0.019104 -0.030201  0.010210 -0.004776  0.008267 -0.008115
 17C   1pz       -0.000623  0.000968  0.000250 -0.000091  0.000604 -0.000620
 17C   1px       -0.000330  0.000523 -0.000252  0.000072  0.001798 -0.001876
 17C   1py        0.000121 -0.000188 -0.000063  0.000022 -0.000063  0.000063
 17C   2pz        0.002402 -0.003765 -0.001986  0.001195  0.000073 -0.001167
 17C   2px       -0.000945  0.001516 -0.002414  0.001766  0.001271 -0.002526
 17C   2py       -0.000548  0.000861  0.000335 -0.000190  0.000032  0.000156
 17C   1dz2      -0.000941  0.001477 -0.000056  0.000012  0.000363 -0.000372
 17C   1dxz       0.000046 -0.000080  0.000074 -0.000032 -0.000421  0.000445
 17C   1dyz       0.000595 -0.000935  0.000055 -0.000013  0.000128 -0.000143
 17C   1dx2y2    -0.001022  0.001605 -0.000134  0.000035 -0.001276  0.001358
 17C   1dxy      -0.000089  0.000142 -0.000026  0.000009 -0.000005  0.000006
 18C   1s        -0.014383  0.024055 -0.011946  0.000078  0.677776 -0.716373
 18C   2s         0.001171 -0.001713 -0.000160 -0.000299  0.035258 -0.037096
 18C   3s        -0.006559  0.009503  0.005477 -0.000378 -0.014012  0.016790
 18C   1pz        0.000187 -0.000295  0.000073 -0.000024 -0.000094  0.000095
 18C   1px        0.001118 -0.001787  0.000349 -0.000161 -0.000057  0.000066
 18C   1py        0.000001 -0.000003 -0.000003 -0.000001  0.000019 -0.000019
 18C   2pz        0.000310 -0.000546 -0.000954 -0.000338  0.001216  0.000250
 18C   2px        0.001373 -0.001738 -0.011965  0.005200 -0.002692  0.000368
 18C   2py       -0.000015  0.000052 -0.000236  0.000264 -0.000360 -0.000039
 18C   1dz2      -0.000202  0.000313 -0.000304  0.000106  0.001059 -0.001138
 18C   1dxz       0.000332 -0.000531 -0.000033  0.000054  0.000227 -0.000246
 18C   1dyz      -0.000069  0.000110  0.000093 -0.000033 -0.000737  0.000780
 18C   1dx2y2     0.000716 -0.001127  0.000104 -0.000027  0.001489 -0.001547
 18C   1dxy      -0.000018  0.000029  0.000014 -0.000013  0.000067 -0.000068
 19H   1s         0.000321 -0.000485 -0.000805  0.000303 -0.003701  0.003935
 19H   2s         0.000984 -0.001330 -0.002237 -0.000147  0.004506 -0.004421
 19H   1pz       -0.000091  0.000159  0.000003 -0.000050 -0.002181  0.002308
 19H   1px       -0.000234  0.000355  0.000410 -0.000200 -0.000549  0.000685
 19H   1py        0.000011 -0.000021  0.000015  0.000003  0.000446 -0.000468
 20H   1s         0.000157 -0.000196  0.005038 -0.001924  0.000628 -0.000735
 20H   2s         0.000473 -0.000559 -0.006082  0.002014  0.001197 -0.001929
 20H   1pz        0.000032 -0.000088 -0.002220  0.000845 -0.000097  0.000165
 20H   1px       -0.000118  0.000165  0.002142 -0.000752 -0.000277  0.000181
 20H   1py       -0.000011  0.000025  0.000553 -0.000208  0.000011 -0.000029
 21H   1s         0.001010 -0.001590 -0.000397  0.000129  0.000310 -0.000223
 21H   2s        -0.002182  0.003419  0.002099 -0.000816  0.001057 -0.000784
 21H   1pz       -0.000798  0.001263  0.000542 -0.000212  0.000044 -0.000037
 21H   1px       -0.000246  0.000372  0.000692 -0.000221 -0.000032  0.000002
 21H   1py        0.000161 -0.000256 -0.000090  0.000037 -0.000011  0.000008
 22H   1s        -0.001384  0.002162 -0.000645  0.000252  0.000464 -0.000506
 22H   2s         0.002641 -0.004120 -0.001297  0.000494  0.000903 -0.000953
 22H   1pz        0.000350 -0.000544 -0.000133  0.000029 -0.000083  0.000140
 22H   1px        0.001024 -0.001598 -0.000064  0.000033  0.000072 -0.000099
 22H   1py       -0.000037  0.000057  0.000026 -0.000005  0.000020 -0.000034
 23H   1s         0.002396 -0.003774 -0.000178  0.000058  0.000005 -0.000017
 23H   2s        -0.003111  0.004887 -0.001274  0.000556 -0.001403  0.001422
 23H   1pz        0.001107 -0.001745  0.000146 -0.000076  0.000055 -0.000017
 23H   1px       -0.000976  0.001544 -0.000019 -0.000026 -0.000536  0.000601
 23H   1py       -0.000272  0.000430 -0.000032  0.000015 -0.000031  0.000026
                     12        13        14        15        16        17   
                 -10.09131 -10.09124  -1.03085  -0.90866  -0.89896  -0.83217
                   2.00000   2.00000   2.00000   2.00000   2.00000   2.00000
                  --------  --------  --------  --------  --------  --------
  0C   1s        -0.000518 -0.000065  0.004602  0.078276  0.089597 -0.072455
  0C   2s         0.000631  0.000871 -0.008097 -0.157440 -0.181098  0.151300
  0C   3s         0.018866  0.008544 -0.002226 -0.005342 -0.018656  0.057632
  0C   1pz       -0.000128 -0.000221  0.001147  0.034069  0.041016 -0.048554
  0C   1px        0.000173  0.000064 -0.004170 -0.034681 -0.034571 -0.010990
  0C   1py        0.000033  0.000049 -0.000395 -0.008512 -0.009985  0.009919
  0C   2pz        0.003080  0.003382  0.001858  0.007549  0.008327 -0.013051
  0C   2px        0.008190  0.002787 -0.001015  0.000199 -0.005070  0.009796
  0C   2py       -0.000355 -0.000617 -0.000440 -0.001600 -0.001957  0.003149
  0C   1dz2      -0.000064 -0.000032  0.000158 -0.002657 -0.003522  0.005661
  0C   1dxz       0.000115  0.000030 -0.000103 -0.000987 -0.001284  0.002194
  0C   1dyz       0.000041  0.000068  0.000129  0.002186  0.002570 -0.002431
  0C   1dx2y2    -0.000055 -0.000242 -0.000870 -0.005389 -0.005666  0.001513
  0C   1dxy      -0.000029 -0.000025 -0.000043 -0.000198 -0.000157 -0.000343
  1C   1s        -0.002570 -0.002061  0.002918  0.077448  0.092715 -0.103400
  1C   2s         0.001200  0.000978 -0.005657 -0.155464 -0.187115  0.215860
  1C   3s        -0.000259  0.000746 -0.006503 -0.029305 -0.028648  0.008236
  1C   1pz       -0.000021  0.000097 -0.000649 -0.011027 -0.012427  0.011584
  1C   1px        0.000366  0.000294 -0.002532 -0.047792 -0.054785  0.037625
  1C   1py        0.000018 -0.000010  0.000045  0.000600  0.000643 -0.001096
  1C   2pz       -0.000231 -0.000218  0.004118 -0.001553 -0.003533  0.003492
  1C   2px       -0.002979 -0.001712 -0.002449 -0.015356 -0.013580 -0.004931
  1C   2py       -0.000060 -0.000016 -0.000964 -0.000260  0.000219 -0.000886
  1C   1dz2      -0.000049 -0.000037 -0.000165 -0.003434 -0.004165  0.005129
  1C   1dxz      -0.000024  0.000010 -0.000000  0.000339  0.000536 -0.001007
  1C   1dyz       0.000032  0.000028  0.000138  0.002435  0.002864 -0.002830
  1C   1dx2y2    -0.000064 -0.000059 -0.000331 -0.004933 -0.005556  0.003648
  1C   1dxy       0.000000 -0.000007 -0.000026 -0.000454 -0.000544  0.000499
  2C   1s        -0.000541  0.000104  0.004023  0.079098  0.091169 -0.064945
  2C   2s         0.001096  0.000726 -0.007898 -0.159303 -0.184274  0.135267
  2C   3s         0.009301  0.011020  0.003454 -0.007680 -0.019071  0.052530
  2C   1pz        0.000274  0.000201 -0.002852 -0.046243 -0.052549  0.037194
  2C   1px       -0.000093 -0.000008 -0.002316 -0.016304 -0.013688 -0.036428
  2C   1py       -0.000062 -0.000043  0.000522  0.009236  0.010672 -0.009233
  2C   2pz       -0.002317 -0.000479  0.005003 -0.005248 -0.010045  0.019604
  2C   2px        0.003934  0.004675 -0.006831 -0.001420 -0.000230 -0.006908
  2C   2py        0.000636  0.000272 -0.001309  0.001047  0.002107 -0.004410
  2C   1dz2      -0.000094 -0.000094 -0.000088 -0.002032 -0.002441  0.002903
  2C   1dxz      -0.000129 -0.000068 -0.000263  0.000260  0.000908 -0.004882
  2C   1dyz       0.000079  0.000072  0.000137  0.002102  0.002418 -0.001895
  2C   1dx2y2    -0.000215 -0.000173 -0.000508 -0.005846 -0.006441  0.002603
  2C   1dxy       0.000011  0.000001  0.000018 -0.000498 -0.000681  0.001241
  3C   1s         0.007010  0.007702  0.013875  0.086455  0.083998  0.028339
[...]
Angular grids for H and He will be reduced by one unit
Partially contracted basis set               ... off
Rotationally invariant grid construction     ... off

Total number of grid points                  ...    17186
Total number of batches                      ...      278
Average number of points per batch           ...       61
Average number of grid points per atom       ...      716

---------------------
COSX-INTEGRATION GRID
---------------------

General Integration Accuracy     IntAcc      ... 3.067
Radial Grid Type                 RadialGrid  ... OptM3 with GC (2021)
Angular Grid (max. ang.)         AngularGrid ... 1 (Lebedev-50)
Angular grid pruning method      GridPruning ... 4 (adaptive)
Weight generation scheme         WeightScheme... Becke
Basis function cutoff            BFCut       ... 1.0000e-10
Integration weight cutoff        WCut        ... 1.0000e-14
Angular grids for H and He will be reduced by one unit
Partially contracted basis set               ... on
Rotationally invariant grid construction     ... off

Total number of grid points                  ...     7882
Total number of batches                      ...      138
Average number of points per batch           ...       57
Average number of grid points per atom       ...      328

---------------
TD-DFT XC SETUP
---------------

DFT calculation                         ... on
Name of the grid file                   ... E_azobenzene.grid_cis.tmp
Exchange functional (TD-DFT)            ... B88
   X-Alpha parameter    XAlpha (TD-DFT) ...  0.666667
   Becke's b parameter  XBeta (TD-DFT)  ...  0.004200
Correlation functional (TD-DFT)         ... LYP
 LDA part of GGA corr.  LDAOpt (TD-DFT) ... VWN-5
Hybrid DFT                              ... on
   Exchange mixing (TD-DFT)             ...  0.200
   GGA exch. scaling (TD-DFT)           ...  0.720
   GGA corr. scaling (TD-DFT)           ...  0.810

Building densities             ... done
Calculating rho(r) on the grid ... done
Building xc-kernel on the grid ... done
                    *** TD-DFT CALCULATION INITIALIZED ***

-------------------
RPA-DIAGONALIZATION
-------------------

Dimension of the (A+B)(A-B) eigenvalue problem ...   6732
Number of roots to be determined               ...      2
Maximum size of the expansion space            ...     60
Convergence tolerance for the residual         ...    1.000e-06
Convergence tolerance for the energies         ...    1.000e-06
Orthogonality tolerance                        ...    1.000e-14
Constructing the preconditioner                ... o.k.
Building the initial guess                     ... o.k.
Number of trial vectors determined             ...     60


                       ****Iteration    0****

   Memory handling for direct AO based RPA:
   Memory per vector needed      ...     2 MB
   Memory needed                 ...    14 MB
   Memory available              ...  4000 MB
   Number of vectors per batch   ...  1658
   Number of batches             ...     1
   Time for densities:            0.005
   Time for XC-Integration:       0.894
   Time for K (COSX):             6.762
   Time for RI-J (Direct):        2.519
   Time for Sigma-Completion:     0.007
   Size of expansion space: 6
   Lowest Energy          :     0.074419154077
   Maximum Energy change  :     0.160067159661 (vector 1)
   Maximum residual norm  :     0.005997739237

                       ****Iteration    1****
   Time for densities:            0.001
   Time for XC-Integration:       0.341
   Time for K (COSX):             5.632
   Time for RI-J (Direct):        1.023
   Time for Sigma-Completion:     0.003
   Size of expansion space: 8
   Lowest Energy          :     0.072734425850
   Maximum Energy change  :     0.001684728227 (vector 0)
   Maximum residual norm  :     0.001134287972

                       ****Iteration    2****
   Time for densities:            0.001
   Time for XC-Integration:       0.343
   Time for K (COSX):             5.698
   Time for RI-J (Direct):        1.021
   Time for Sigma-Completion:     0.003
   Size of expansion space: 10
   Lowest Energy          :     0.070634109744
   Maximum Energy change  :     0.014029362542 (vector 1)
   Maximum residual norm  :     0.004957894485

                       ****Iteration    3****
   Time for densities:            0.001
   Time for XC-Integration:       0.346
   Time for K (COSX):             5.662
   Time for RI-J (Direct):        1.028
   Time for Sigma-Completion:     0.003
   Size of expansion space: 12
   Lowest Energy          :     0.070586531520
   Maximum Energy change  :     0.001960088567 (vector 1)
   Maximum residual norm  :     0.001179898448

                       ****Iteration    4****
   Time for densities:            0.001
   Time for XC-Integration:       0.341
   Time for K (COSX):             5.749
   Time for RI-J (Direct):        1.041
   Time for Sigma-Completion:     0.003
   Size of expansion space: 14
   Lowest Energy          :     0.070573515903
   Maximum Energy change  :     0.000455189189 (vector 1)
   Maximum residual norm  :     0.000261156778

                       ****Iteration    5****
   Time for densities:            0.001
   Time for XC-Integration:       0.350
   Time for K (COSX):             5.872
   Time for RI-J (Direct):        1.024
   Time for Sigma-Completion:     0.003
   Size of expansion space: 16
   Lowest Energy          :     0.070572461272
   Maximum Energy change  :     0.000098627032 (vector 1)
   Maximum residual norm  :     0.000277088448

                       ****Iteration    6****
   Time for densities:            0.001
   Time for XC-Integration:       0.333
   Time for K (COSX):             5.617
   Time for RI-J (Direct):        1.006
   Time for Sigma-Completion:     0.003
   Size of expansion space: 18
   Lowest Energy          :     0.070572419325
   Maximum Energy change  :     0.000269765732 (vector 1)
   Maximum residual norm  :     0.000099025282

                       ****Iteration    7****
   Time for densities:            0.001
   Time for XC-Integration:       0.342
   Time for K (COSX):             5.204
   Time for RI-J (Direct):        1.031
   Time for Sigma-Completion:     0.003
   Size of expansion space: 20
   Lowest Energy          :     0.070572373333
   Maximum Energy change  :     0.000036080997 (vector 1)
   Maximum residual norm  :     0.000009132231

                       ****Iteration    8****
   Time for densities:            0.002
   Time for XC-Integration:       0.344
   Time for K (COSX):             5.679
   Time for RI-J (Direct):        1.049
   Time for Sigma-Completion:     0.003
   Size of expansion space: 22
   Lowest Energy          :     0.070572363467
   Maximum Energy change  :     0.000003834543 (vector 1)
   Maximum residual norm  :     0.000004976146

                       ****Iteration    9****
   Time for densities:            0.002
   Time for XC-Integration:       0.350
   Time for K (COSX):             5.747
   Time for RI-J (Direct):        1.040
   Time for Sigma-Completion:     0.003
   Size of expansion space: 24
   Lowest Energy          :     0.070572362728
   Maximum Energy change  :     0.000004544805 (vector 1)
   Maximum residual norm  :     0.000001530982

                       ****Iteration   10****
   Time for densities:            0.001
   Time for XC-Integration:       0.343
   Time for K (COSX):             5.470
   Time for RI-J (Direct):        1.026
   Time for Sigma-Completion:     0.003
   Size of expansion space: 26
   Lowest Energy          :     0.070572362530
   Maximum Energy change  :     0.000000607941 (vector 1)

         *** CONVERGENCE OF ENERGIES REACHED ***

Storing the converged CI vectors               ... E_azobenzene.cis1

                 *** DAVIDSON DONE ***

Total time for solving the RPA problem:    90.397sec

--------------------------------
TD-DFT EXCITED STATES (SINGLETS)
--------------------------------

the weight of the individual excitations are printed if larger than 0.01

STATE  1:  E=   0.070572 au      1.920 eV    15488.8 cm**-1 <S**2> =   0.000000
    47a ->  48a  :     0.988743 
    47a ->  52a  :     0.010759 

STATE  2:  E=   0.143003 au      3.891 eV    31385.5 cm**-1 <S**2> =   0.000000
    45a ->  48a  :     0.019540 
    46a ->  48a  :     0.968892 


------------------------------------------
NATURAL TRANSITION ORBITALS FOR STATE    1
------------------------------------------

Making the (pseudo)densities                       ... done
Solving eigenvalue problem for the occupied space  ... done
Solving eigenvalue problem for the virtual space   ... done
Natural Transition Orbitals were saved in E_azobenzene.s1.nto
Threshold for printing occupation numbers 0.001000

 E=   0.070572 au      1.920 eV    15488.8 cm**-1
    47a ->  48a  : n=  1.01206107


------------------------------------------
NATURAL TRANSITION ORBITALS FOR STATE    2
------------------------------------------

Making the (pseudo)densities                       ... done
Solving eigenvalue problem for the occupied space  ... done
Solving eigenvalue problem for the virtual space   ... done
Natural Transition Orbitals were saved in E_azobenzene.s2.nto
Threshold for printing occupation numbers 0.001000

 E=   0.143003 au      3.891 eV    31385.5 cm**-1
    47a ->  48a  : n=  1.01143987
    46a ->  49a  : n=  0.00460050
    45a ->  50a  : n=  0.00194069
    44a ->  51a  : n=  0.00172170
    43a ->  52a  : n=  0.00122487
    42a ->  53a  : n=  0.00116206
    41a ->  54a  : n=  0.00115438


-------------------------
TD-DFT-EXCITATION SPECTRA
-------------------------

Center of mass = ( -9.7971,  6.1436,  1.1814)
Calculating the Dipole integrals                  ... done
Transforming integrals                            ... done
Calculating the Linear Momentum integrals         ... done
Transforming integrals                            ... done
Calculating angular momentum integrals            ... done
Transforming integrals                            ... done

-----------------------------------------------------------------------------
         ABSORPTION SPECTRUM VIA TRANSITION ELECTRIC DIPOLE MOMENTS
-----------------------------------------------------------------------------
State   Energy    Wavelength  fosc         T2        TX        TY        TZ  
        (cm-1)      (nm)                 (au**2)    (au)      (au)      (au) 
-----------------------------------------------------------------------------
   1   15488.8    645.6   0.000000046   0.00000  -0.00093   0.00004  -0.00033
   2   31385.5    318.6   0.817503587   8.57504  -2.77321   0.09762  -0.93531

-----------------------------------------------------------------------------
         ABSORPTION SPECTRUM VIA TRANSITION VELOCITY DIPOLE MOMENTS
-----------------------------------------------------------------------------
State   Energy    Wavelength   fosc        P2         PX        PY        PZ  
        (cm-1)      (nm)                 (au**2)     (au)      (au)      (au) 
-----------------------------------------------------------------------------
   1   15488.8    645.6   0.000000051   0.00000   0.00007  -0.00000   0.00003
   2   31385.5    318.6   0.769525779   0.16507   0.38685  -0.01209   0.12356

-------------------------------------------------------------------
                             CD SPECTRUM
-------------------------------------------------------------------
State  Energy     Wavelength     R         MX        MY        MZ   
       (cm-1)       (nm)     (1e40*cgs)   (au)      (au)      (au)  
-------------------------------------------------------------------
   1   15488.8    645.6     -0.19258   0.33397  -0.04972   0.29097
   2   31385.5    318.6     -0.05154  -0.00018  -0.00011   0.00064

Total run time:       91.111 sec

           *** ORCA-CIS/TD-DFT FINISHED WITHOUT ERROR ***

Maximum memory used throughout the entire CIS-calculation: 62.3 MB


-------------------------------------------------------------------------------
                          DFT DISPERSION CORRECTION                            
                                                                               
                              DFTD3 V3.1  Rev 1                                
                          USING Becke-Johnson damping                          
-------------------------------------------------------------------------------
The B3LYP functional is recognized
Active option DFTDOPT                   ...         4   

C6 coefficients used: 
	2 C6 for element 	 1
Z=1  CN=    0.911800  	 C6(AA)=    3.026700
Z=1  CN=    0.000000  	 C6(AA)=    7.591600
	5 C6 for element 	 6
Z=6  CN=    0.000000  	 C6(AA)=   49.113000
Z=6  CN=    0.986800  	 C6(AA)=   43.245200
Z=6  CN=    1.998500  	 C6(AA)=   29.360200
Z=6  CN=    2.998700  	 C6(AA)=   25.780900
Z=6  CN=    3.984400  	 C6(AA)=   18.206700
	4 C6 for element 	 7
Z=7  CN=    0.000000  	 C6(AA)=   25.268500
Z=7  CN=    0.994400  	 C6(AA)=   22.124100
Z=7  CN=    2.014300  	 C6(AA)=   19.676800
Z=7  CN=    2.990300  	 C6(AA)=   15.581700

  #           XYZ [au]              r0(AA) [Ang.]  CN      C6(AA)     C8(AA)    C10(AA) [au]
  1  -17.23406    5.94908    0.82231  c   1.455   3.125      25.4      733.4    25985.2
  2  -17.99992    6.44759   -1.65542  c   1.455   3.127      25.4      733.3    25979.8
  3  -16.19561    6.91103   -3.52721  c   1.455   3.126      25.4      733.4    25982.0
  4  -13.62271    6.87671   -2.92428  c   1.455   3.163      25.2      729.2    25834.5
  5  -12.83468    6.37877   -0.44547  c   1.455   3.191      25.1      725.2    25693.8
  6  -14.66282    5.91297    1.43332  c   1.455   3.161      25.2      729.4    25842.9
  7  -14.10875    5.52310    3.36352  h   1.091   1.004       3.1       37.3      552.9
  8  -18.63334    5.59045    2.27045  h   1.091   1.003       3.1       37.3      553.0
  9  -19.99052    6.47473   -2.12469  h   1.091   1.003       3.1       37.3      553.0
 10  -16.79029    7.29695   -5.44579  h   1.091   1.003       3.1       37.3      553.0
 11  -12.23936    7.23822   -4.38845  h   1.091   1.004       3.1       37.3      552.9
 12  -10.20804    6.35912    0.09779  n   1.311   2.146      19.4      428.8    11587.6
 13   -9.38616    5.92762    2.26482  n   1.311   2.146      19.4      428.8    11587.6
 14   -6.75951    5.90829    2.80815  c   1.455   3.191      25.1      725.2    25693.8
 15   -5.97140    5.40802    5.28647  c   1.455   3.163      25.2      729.2    25834.5
 16   -3.39852    5.37397    5.88946  c   1.455   3.126      25.4      733.4    25982.0
 17   -1.59431    5.84007    4.01824  c   1.455   3.127      25.4      733.3    25979.8
 18   -2.36025    6.34094    1.54101  c   1.455   3.125      25.4      733.4    25985.2
 19   -4.93149    6.37673    0.92993  c   1.455   3.161      25.2      729.4    25842.9
 20   -5.48563    6.76851   -0.99987  h   1.091   1.004       3.1       37.3      552.9
 21   -7.35468    5.04445    6.75020  h   1.091   1.004       3.1       37.3      552.9
 22   -2.80377    4.98617    7.80765  h   1.091   1.003       3.1       37.3      553.0
 23    0.39629    5.81314    4.48755  h   1.091   1.003       3.1       37.3      553.0
 24   -0.96104    6.70167    0.09331  h   1.091   1.003       3.1       37.3      553.0

molecular C6(AA) [au] = 7508.407218 


            DFT-D V3
 parameters
 s6 scaling factor         :     1.0000 
 a1 scaling factor         :     0.3981 
 s8 scaling factor         :     1.9889 
 a2 scaling factor         :     4.4211 
 ad hoc parameters k1-k3   :    16.0000     1.3333    -4.0000 

 Edisp/kcal,au: -29.544299043375  -0.047081832407 
 E6   /kcal   : -13.691955528 
 E8   /kcal   : -15.852343515 
 % E8         :  53.656184199 

-------------------------   ----------------
Dispersion correction           -0.047081832
-------------------------   ----------------


-------------------------   --------------------
FINAL SINGLE POINT ENERGY      -572.035824085053
-------------------------   --------------------


                            ***************************************
                            *     ORCA property calculations      *
                            ***************************************

                                    ---------------------
                                    Active property flags
                                    ---------------------
   (+) Dipole Moment


------------------------------------------------------------------------------
                       ORCA ELECTRIC PROPERTIES CALCULATION
------------------------------------------------------------------------------

Dipole Moment Calculation                       ... on
Quadrupole Moment Calculation                   ... off
Polarizability Calculation                      ... off
GBWName                                         ... E_azobenzene.gbw
Electron density                                ... E_azobenzene.scfp
SHARK General Contraction Test:  Segmented basis detected
   -> Pre-screening matrix found on disk - Trying to read with NShells=114
   -> Passing Pre-screening matrix on to SHARK ...ok
   -> Leaving CheckPreScreeningMatrix
----------------------
SHARK INTEGRAL PACKAGE
----------------------

Number of atoms                             ...     24
Number of basis functions                   ...    246
Number of shells                            ...    114
Maximum angular momentum                    ...      2
Integral batch strategy                     ... SHARK/LIBINT Hybrid
RI-J (if used) integral strategy            ... SPLIT-RIJ (Revised 2003 algorithm where possible)
Printlevel                                  ...      2
Contraction scheme used                     ... SEGMENTED contraction
Coulomb Range Separation                    ... NOT USED
Exchange Range Separation                   ... NOT USED
Finite Nucleus Model                        ... NOT USED
Auxiliary Coulomb fitting basis             ... AVAILABLE
   # of basis functions in Aux-J            ...    796
   # of shells in Aux-J                     ...    260
   Maximum angular momentum in Aux-J        ...      4
Auxiliary J/K fitting basis                 ... NOT available
Auxiliary Correlation fitting basis         ... NOT available
Auxiliary 'external' fitting basis          ... NOT available
Integral threshold                          ...     1.000000e-10
Primitive cut-off                           ...     1.000000e-11
Primitive pair pre-selection threshold      ...     1.000000e-11

The origin for moment calculation is the CENTER OF MASS  = (-9.797106,  6.143636  1.181367)

-------------
DIPOLE MOMENT
-------------
                                X             Y             Z
Electronic contribution:      0.00001      -0.00041      -0.00008
Nuclear contribution   :     -0.00002       0.00051       0.00010
                        -----------------------------------------
Total Dipole Moment    :     -0.00001       0.00011       0.00002
                        -----------------------------------------
Magnitude (a.u.)       :      0.00011
Magnitude (Debye)      :      0.00028



--------------------
Rotational spectrum 
--------------------
 
Rotational constants in cm-1:     0.091550     0.009420     0.008541 
Rotational constants in MHz :  2744.608176   282.416532   256.067539 

 Dipole components along the rotational axes: 
x,y,z [a.u.] :     0.000007    -0.000001    -0.000109 
x,y,z [Debye]:     0.000019    -0.000002    -0.000278 

 

Timings for individual modules:

Sum of individual times         ...      209.721 sec (=   3.495 min)
GTO integral calculation        ...        1.051 sec (=   0.018 min)   0.5 %
SCF iterations                  ...      117.539 sec (=   1.959 min)  56.0 %
CIS module                      ...       91.132 sec (=   1.519 min)  43.5 %
                             ****ORCA TERMINATED NORMALLY****
TOTAL RUN TIME: 0 days 0 hours 3 minutes 31 seconds 223 msec
